20
Properties=species:S:1:pos:R:3 energy=-11531.687435511016 pbc="F F F"
O        2.57686500      -0.68221700       1.85989000
C        3.16431300      -0.65649500       2.86966200
C        4.30669900      -0.06513100       3.56298200
C        5.06259600       1.00572000       2.76108100
C        5.95378300       0.43047900       1.65419700
C        5.22156800       0.26352500       0.31960100
H        4.91563300       1.25004100      -0.08087200
C        6.06525700      -0.47298000      -0.69870600
O        7.14037800      -0.96189100      -0.43391000
C        5.47067800      -0.56379300      -2.07712500
H        4.26562700      -0.28874800       0.46702400
H        3.94719100       0.36442100       4.52700500
H        4.99890300      -0.88664500       3.86487400
H        4.34468300       1.73624100       2.33869200
H        5.69406400       1.58616500       3.46521400
H        6.83381400       1.08975400       1.50454000
H        6.38598600      -0.54486600       1.96292200
H        4.45157800      -0.96984300      -2.06458000
H        5.42464800       0.41875600      -2.56333300
H        6.07582600      -1.21583900      -2.72534900
