2
Properties=species:S:1:pos:R:3 energy=-2060.9635418153207 pbc="F F F"
O        0.91382700      -0.02306100      -0.01025900
H        1.89264900      -0.02306100      -0.01025900
