 Entering Gaussian System, Link 0=g09
 Initial command:
 /apps/applications/gaussian/G09.D01/2/default/g09/l1.exe "/nobackup/chmrsh/Scratch/Gau-47638.inp" -scrdir="/nobackup/chmrsh/Scratch/"
 Entering Link 1 = /apps/applications/gaussian/G09.D01/2/default/g09/l1.exe PID=     47639.
  
 Copyright (c) 1988,1990,1992,1993,1995,1998,2003,2009,2013,
            Gaussian, Inc.  All Rights Reserved.
  
 This is part of the Gaussian(R) 09 program.  It is based on
 the Gaussian(R) 03 system (copyright 2003, Gaussian, Inc.),
 the Gaussian(R) 98 system (copyright 1998, Gaussian, Inc.),
 the Gaussian(R) 94 system (copyright 1995, Gaussian, Inc.),
 the Gaussian 92(TM) system (copyright 1992, Gaussian, Inc.),
 the Gaussian 90(TM) system (copyright 1990, Gaussian, Inc.),
 the Gaussian 88(TM) system (copyright 1988, Gaussian, Inc.),
 the Gaussian 86(TM) system (copyright 1986, Carnegie Mellon
 University), and the Gaussian 82(TM) system (copyright 1983,
 Carnegie Mellon University). Gaussian is a federally registered
 trademark of Gaussian, Inc.
  
 This software contains proprietary and confidential information,
 including trade secrets, belonging to Gaussian, Inc.
  
 This software is provided under written license and may be
 used, copied, transmitted, or stored only in accord with that
 written license.
  
 The following legend is applicable only to US Government
 contracts under FAR:
  
                    RESTRICTED RIGHTS LEGEND
  
 Use, reproduction and disclosure by the US Government is
 subject to restrictions as set forth in subparagraphs (a)
 and (c) of the Commercial Computer Software - Restricted
 Rights clause in FAR 52.227-19.
  
 Gaussian, Inc.
 340 Quinnipiac St., Bldg. 40, Wallingford CT 06492
  
  
 ---------------------------------------------------------------
 Warning -- This program may not be used in any manner that
 competes with the business of Gaussian, Inc. or will provide
 assistance to any competitor of Gaussian, Inc.  The licensee
 of this program is prohibited from giving any competitor of
 Gaussian, Inc. access to this program.  By using this program,
 the user acknowledges that Gaussian, Inc. is engaged in the
 business of creating and licensing software in the field of
 computational chemistry and represents and warrants to the
 licensee that it is not a competitor of Gaussian, Inc. and that
 it will not use this program in any manner prohibited above.
 ---------------------------------------------------------------
  

 Cite this work as:
 Gaussian 09, Revision D.01,
 M. J. Frisch, G. W. Trucks, H. B. Schlegel, G. E. Scuseria, 
 M. A. Robb, J. R. Cheeseman, G. Scalmani, V. Barone, B. Mennucci, 
 G. A. Petersson, H. Nakatsuji, M. Caricato, X. Li, H. P. Hratchian, 
 A. F. Izmaylov, J. Bloino, G. Zheng, J. L. Sonnenberg, M. Hada, 
 M. Ehara, K. Toyota, R. Fukuda, J. Hasegawa, M. Ishida, T. Nakajima, 
 Y. Honda, O. Kitao, H. Nakai, T. Vreven, J. A. Montgomery, Jr., 
 J. E. Peralta, F. Ogliaro, M. Bearpark, J. J. Heyd, E. Brothers, 
 K. N. Kudin, V. N. Staroverov, T. Keith, R. Kobayashi, J. Normand, 
 K. Raghavachari, A. Rendell, J. C. Burant, S. S. Iyengar, J. Tomasi, 
 M. Cossi, N. Rega, J. M. Millam, M. Klene, J. E. Knox, J. B. Cross, 
 V. Bakken, C. Adamo, J. Jaramillo, R. Gomperts, R. E. Stratmann, 
 O. Yazyev, A. J. Austin, R. Cammi, C. Pomelli, J. W. Ochterski, 
 R. L. Martin, K. Morokuma, V. G. Zakrzewski, G. A. Voth, 
 P. Salvador, J. J. Dannenberg, S. Dapprich, A. D. Daniels, 
 O. Farkas, J. B. Foresman, J. V. Ortiz, J. Cioslowski, 
 and D. J. Fox, Gaussian, Inc., Wallingford CT, 2013.
 
 ******************************************
 Gaussian 09:  ES64L-G09RevD.01 24-Apr-2013
                 5-Jan-2021 
 ******************************************
 ----------------------------------------------------------------------
 #P b3lyp/3-21G scf=qc opt(calcall, ts, noeigentest, cartesian,maxcycle
 =100)
 ----------------------------------------------------------------------
 1/5=1,6=100,10=4,11=1,14=-1,18=10,26=3,38=1/1,3;
 2/12=2,17=6,18=5,29=2,40=1/2;
 3/5=5,11=2,16=1,25=1,30=1,71=2,74=-5,140=1/1,2,3;
 4//1;
 5/5=2,8=3,38=5/8;
 8/6=4,10=90,11=11/1;
 11/6=1,8=1,9=11,15=111,16=1/1,2,10;
 10/6=1/2;
 6/7=2,8=2,9=2,10=2,18=1,28=1/1;
 7/7=1,10=1,25=1/1,2,3,16;
 1/5=1,6=100,10=4,11=1,14=-1,18=10,26=3/3(3);
 2/29=1/2;
 7/7=1,8=1,9=1,25=1,44=-1/16;
 99/12=1/99;
 2/29=1/2;
 3/5=5,11=2,16=1,25=1,30=1,71=2,74=-5,140=1/1,2,3;
 4/5=5,16=3,69=1/1;
 5/5=2,8=3,38=5/8;
 8/6=4,10=90,11=11/1;
 11/6=1,8=1,9=11,15=111,16=1/1,2,10;
 10/6=1/2;
 7/7=1,10=1,25=1/1,2,3,16;
 1/5=1,6=100,10=4,11=1,14=-1,18=10,26=3/3(-8);
 2/29=1/2;
 6/7=2,8=2,9=2,10=2,18=1,19=2,28=1/1;
 7/7=1,8=1,9=1,25=1,44=-1/16;
 99/12=1/99;
 Leave Link    1 at Tue Jan  5 15:15:37 2021, MaxMem=           0 cpu:         0.0
 (Enter /apps/applications/gaussian/G09.D01/2/default/g09/l101.exe)
 ------------------------------
 Gaussian input prepared by ASE
 ------------------------------
 Symbolic Z-matrix:
 Charge =  0 Multiplicity = 2
 C                    -7.07151   0.59551   0.66594 
 C                    -5.86887   0.89253   1.36155 
 H                    -7.45242  -0.4146    0.90524 
 H                    -6.91345   0.62603  -0.43071 
 H                    -7.87251   1.32428   0.8922 
 C                    -4.86627   1.14699   2.08617 
 H                    -3.84841   1.40406   2.18019 
 O                    -5.26766   1.06151   3.77655 
 H                    -6.18501   0.75405   3.80998 
 
 NAtoms=      9 NQM=        9 NQMF=       0 NMMI=      0 NMMIF=      0
                NMic=       0 NMicF=      0.
                    Isotopes and Nuclear Properties:
 (Nuclear quadrupole moments (NQMom) in fm**2, nuclear magnetic moments (NMagM)
  in nuclear magnetons)

  Atom         1           2           3           4           5           6           7           8           9
 IAtWgt=          12          12           1           1           1          12           1          16           1
 AtmWgt=  12.0000000  12.0000000   1.0078250   1.0078250   1.0078250  12.0000000   1.0078250  15.9949146   1.0078250
 NucSpn=           0           0           1           1           1           0           1           0           1
 AtZEff=   0.0000000   0.0000000   0.0000000   0.0000000   0.0000000   0.0000000   0.0000000   0.0000000   0.0000000
 NQMom=    0.0000000   0.0000000   0.0000000   0.0000000   0.0000000   0.0000000   0.0000000   0.0000000   0.0000000
 NMagM=    0.0000000   0.0000000   2.7928460   2.7928460   2.7928460   0.0000000   2.7928460   0.0000000   2.7928460
 AtZNuc=   6.0000000   6.0000000   1.0000000   1.0000000   1.0000000   6.0000000   1.0000000   8.0000000   1.0000000
 Leave Link  101 at Tue Jan  5 15:15:37 2021, MaxMem=    33554432 cpu:         0.1
 (Enter /apps/applications/gaussian/G09.D01/2/default/g09/l103.exe)

 GradGradGradGradGradGradGradGradGradGradGradGradGradGradGradGradGradGrad
 Berny optimization.
 Initialization pass.
 No Z-matrix variables, so optimization will use Cartesian coordinates.
 Trust Radius=3.00D-01 FncErr=1.00D-07 GrdErr=1.00D-06
 Number of steps in this run=    100 maximum allowed number of steps=    100.
 Search for a saddle point of order  1.
 GradGradGradGradGradGradGradGradGradGradGradGradGradGradGradGradGradGrad

 Leave Link  103 at Tue Jan  5 15:15:37 2021, MaxMem=    33554432 cpu:         0.0
 (Enter /apps/applications/gaussian/G09.D01/2/default/g09/l202.exe)
 ---------------------------------------------------------------------------------------------------
                            Z-MATRIX (ANGSTROMS AND DEGREES)
   CD    Cent   Atom    N1       Length/X        N2       Alpha/Y        N3        Beta/Z          J
 ---------------------------------------------------------------------------------------------------
      1      1  C        0  -7.071509          0.595512          0.665944
      2      2  C        0  -5.868874          0.892529          1.361547
      3      3  H        0  -7.452422         -0.414598          0.905242
      4      4  H        0  -6.913449          0.626027         -0.430707
      5      5  H        0  -7.872509          1.324282          0.892202
      6      6  C        0  -4.866273          1.146989          2.086166
      7      7  H        0  -3.848409          1.404062          2.180191
      8      8  O        0  -5.267662          1.061510          3.776545
      9      9  H        0  -6.185007          0.754045          3.809980
 ---------------------------------------------------------------------------------------------------
                         Z-Matrix orientation:                         
 ---------------------------------------------------------------------
 Center     Atomic      Atomic             Coordinates (Angstroms)
 Number     Number       Type             X           Y           Z
 ---------------------------------------------------------------------
      1          6           0       -7.071509    0.595512    0.665944
      2          6           0       -5.868874    0.892529    1.361547
      3          1           0       -7.452422   -0.414598    0.905242
      4          1           0       -6.913449    0.626027   -0.430707
      5          1           0       -7.872509    1.324282    0.892202
      6          6           0       -4.866273    1.146989    2.086166
      7          1           0       -3.848409    1.404062    2.180191
      8          8           0       -5.267662    1.061510    3.776545
      9          1           0       -6.185007    0.754045    3.809980
 ---------------------------------------------------------------------
                    Distance matrix (angstroms):
                    1          2          3          4          5
     1  C    0.000000
     2  C    1.420709   0.000000
     3  H    1.105749   2.103430   0.000000
     4  H    1.108402   2.091491   1.777119   0.000000
     5  H    1.106300   2.102676   1.788951   1.776920   0.000000
     6  C    2.680340   1.262946   3.243656   3.285876   3.239512
     7  H    3.651722   2.239224   4.233430   4.100804   4.225951
     8  O    3.625860   2.494439   3.898263   4.538637   3.895344
     9  H    3.270471   2.472638   3.377805   4.304700   3.418517
                    6          7          8          9
     6  C    0.000000
     7  H    1.054028   0.000000
     8  O    1.739483   2.163324   0.000000
     9  H    2.205675   2.922059   0.968078   0.000000
 Stoichiometry    C3H5O(2)
 Framework group  C1[X(C3H5O)]
 Deg. of freedom    21
 Full point group                 C1      NOp   1
 Largest Abelian subgroup         C1      NOp   1
 Largest concise Abelian subgroup C1      NOp   1
                         Standard orientation:                         
 ---------------------------------------------------------------------
 Center     Atomic      Atomic             Coordinates (Angstroms)
 Number     Number       Type             X           Y           Z
 ---------------------------------------------------------------------
      1          6           0       -1.823356   -0.266653    0.002913
      2          6           0       -0.543768    0.350611   -0.004334
      3          1           0       -1.980932   -0.908926   -0.883279
      4          1           0       -2.630402    0.493060   -0.005341
      5          1           0       -1.979701   -0.886917    0.905536
      6          6           0        0.642593    0.783715   -0.003857
      7          1           0        1.320813    1.590557   -0.004075
      8          8           0        1.793605   -0.520422    0.010244
      9          1           0        1.268566   -1.330438   -0.063124
 ---------------------------------------------------------------------
 Rotational constants (GHZ):     23.2259866      4.2279868      3.6607340
 Leave Link  202 at Tue Jan  5 15:15:37 2021, MaxMem=    33554432 cpu:         0.0
 (Enter /apps/applications/gaussian/G09.D01/2/default/g09/l301.exe)
 Standard basis: 3-21G (6D, 7F)
 Ernie: Thresh=  0.10000D-02 Tol=  0.10000D-05 Strict=F.
 There are    46 symmetry adapted cartesian basis functions of A   symmetry.
 There are    46 symmetry adapted basis functions of A   symmetry.
    46 basis functions,    75 primitive gaussians,    46 cartesian basis functions
    16 alpha electrons       15 beta electrons
       nuclear repulsion energy       103.7755838906 Hartrees.
 IExCor=  402 DFT=T Ex+Corr=B3LYP ExCW=0 ScaHFX=  0.200000
 ScaDFX=  0.800000  0.720000  1.000000  0.810000 ScalE2=  1.000000  1.000000
 IRadAn=      0 IRanWt=     -1 IRanGd=            0 ICorTp=0 IEmpDi=  4
 NAtoms=    9 NActive=    9 NUniq=    9 SFac= 1.00D+00 NAtFMM=   60 NAOKFM=F Big=F
 Integral buffers will be    131072 words long.
 Raffenetti 2 integral format.
 Two-electron integral symmetry is turned on.
 Leave Link  301 at Tue Jan  5 15:15:37 2021, MaxMem=    33554432 cpu:         0.1
 (Enter /apps/applications/gaussian/G09.D01/2/default/g09/l302.exe)
 NPDir=0 NMtPBC=     1 NCelOv=     1 NCel=       1 NClECP=     1 NCelD=      1
         NCelK=      1 NCelE2=     1 NClLst=     1 CellRange=     0.0.
 One-electron integrals computed using PRISM.
 NBasis=    46 RedAO= T EigKep=  2.69D-03  NBF=    46
 NBsUse=    46 1.00D-06 EigRej= -1.00D+00 NBFU=    46
 Precomputing XC quadrature grid using
 IXCGrd= 4 IRadAn=           0 IRanWt=          -1 IRanGd=           0 AccXCQ= 0.00D+00.
 Generated NRdTot=       0 NPtTot=           0 NUsed=           0 NTot=          32
 NSgBfM=    46    46    46    46    46 MxSgAt=     9 MxSgA2=     9.
 Leave Link  302 at Tue Jan  5 15:15:37 2021, MaxMem=    33554432 cpu:         0.2
 (Enter /apps/applications/gaussian/G09.D01/2/default/g09/l303.exe)
 DipDrv:  MaxL=1.
 Leave Link  303 at Tue Jan  5 15:15:37 2021, MaxMem=    33554432 cpu:         0.1
 (Enter /apps/applications/gaussian/G09.D01/2/default/g09/l401.exe)
 ExpMin= 1.83D-01 ExpMax= 3.22D+02 ExpMxC= 3.22D+02 IAcc=1 IRadAn=         1 AccDes= 0.00D+00
 Harris functional with IExCor=  402 and IRadAn=       1 diagonalized for initial guess.
 HarFok:  IExCor=  402 AccDes= 0.00D+00 IRadAn=         1 IDoV= 1 UseB2=F ITyADJ=14
 ICtDFT=  3500011 ScaDFX=  1.000000  1.000000  1.000000  1.000000
 FoFCou: FMM=F IPFlag=           0 FMFlag=      100000 FMFlg1=           0
         NFxFlg=           0 DoJE=T BraDBF=F KetDBF=T FulRan=T
         wScrn=  0.000000 ICntrl=     500 IOpCl=  0 I1Cent=   200000004 NGrid=           0
         NMat0=    1 NMatS0=      1 NMatT0=    0 NMatD0=    1 NMtDS0=    0 NMtDT0=    0
 Petite list used in FoFCou.
 Harris En= -191.354560938460    
 JPrj=0 DoOrth=F DoCkMO=F.
 Initial guess <Sx>= 0.0000 <Sy>= 0.0000 <Sz>= 0.5000 <S**2>= 0.7500 S= 0.5000
 Leave Link  401 at Tue Jan  5 15:15:38 2021, MaxMem=    33554432 cpu:         0.2
 (Enter /apps/applications/gaussian/G09.D01/2/default/g09/l508.exe)
 Direct SCF.
 Tight linear equation convergence will be used.
 UB3LYP wavefunction.
 Quadratic Convergence SCF Method.
 Line search only if initial step raises energy.
 Integral symmetry usage will be decided dynamically.
 ReadGW:  IGet=1 IStart=         402 Next=         402 LGW=           0.
 Keep R1 and R2 ints in memory in canonical form, NReq=2054798.
 FoFCou: FMM=F IPFlag=           0 FMFlag=           0 FMFlg1=           0
         NFxFlg=           0 DoJE=F BraDBF=F KetDBF=F FulRan=T
         wScrn=  0.000000 ICntrl=     600 IOpCl=  0 I1Cent=           0 NGrid=           0
         NMat0=    1 NMatS0=   1081 NMatT0=    0 NMatD0=    1 NMtDS0=    0 NMtDT0=    0
 Symmetry not used in FoFCou.
 Iteration   1 EE= -191.241487450968                                    Grad=4.664D-01 Max rot=    5.1221 deg.
 Gradient too large for Newton-Raphson -- use scaled steepest descent instead.
 Alpha Gap=     0.202 HL deriv= 8.27D-04
  Beta Gap=     0.111 HL deriv= 6.33D-03
     ILin= 1 X=0.000D+00 Y=-1.912414874510D+02 DE= 0.00D+00 F= -4.79D-01
     ILin= 2 X=3.000D-01 Y=-1.913279451755D+02 DE=-8.65D-02 F= -9.43D-02
     ILin= 3 X=4.000D-01 Y=-1.913308521714D+02 DE=-8.94D-02 F=  3.62D-02
     Accept linear search using points  2 and  3.
     An  expanding polynomial of degree  3 produced  0.3419
 Iteration   2 EE= -191.330751788563     Delta-E=       -0.089264337595 Grad=1.546D-01 Max rot=    1.7617 deg.
 Gradient too large for Newton-Raphson -- use scaled steepest descent instead.
 Alpha Gap=     0.243 HL deriv= 3.09D-04
  Beta Gap=     0.154 HL deriv= 6.58D-05
     ILin= 1 X=0.000D+00 Y=-1.913307517886D+02 DE= 0.00D+00 F= -4.96D-02
     ILin= 2 X=3.000D-01 Y=-1.913404818629D+02 DE=-9.73D-03 F= -1.54D-02
     ILin= 3 X=5.000D-01 Y=-1.913413285634D+02 DE=-1.06D-02 F=  6.90D-03
     Accept linear search using points  2 and  3.
     An  expanding polynomial of degree  3 produced  0.3920
 Iteration   3 EE= -191.341426077666     Delta-E=       -0.010674289102 Grad=6.617D-02 Max rot=    0.7550 deg.
 Gradient too large for Newton-Raphson -- use scaled steepest descent instead.
 Alpha Gap=     0.240 HL deriv= 1.46D-04
  Beta Gap=     0.145 HL deriv= 1.20D-03
     ILin= 1 X=0.000D+00 Y=-1.913414260777D+02 DE= 0.00D+00 F= -7.81D-03
     ILin= 2 X=4.000D-01 Y=-1.913433295922D+02 DE=-1.90D-03 F= -1.72D-03
     ILin= 3 X=7.000D-01 Y=-1.913431637792D+02 DE=-1.74D-03 F=  2.82D-03
     An  expanding polynomial of degree  3 produced  0.5136
 Iteration   4 EE= -191.343426990367     Delta-E=       -0.002000912701 Grad=3.921D-02 Max rot=    0.4788 deg.
 Gradient too large for Newton-Raphson -- use scaled steepest descent instead.
 Alpha Gap=     0.242 HL deriv= 9.32D-05
  Beta Gap=     0.152 HL deriv= 2.29D-04
     ILin= 1 X=0.000D+00 Y=-1.913434269904D+02 DE= 0.00D+00 F= -2.85D-03
     ILin= 2 X=4.000D-01 Y=-1.913440065215D+02 DE=-5.80D-04 F= -5.79D-05
     ILin= 3 X=9.000D-01 Y=-1.913431741500D+02 DE= 2.53D-04 F=  3.38D-03
     An  expanding polynomial of degree  3 produced  0.4094
     Minimum is close to point  2 DX=  9.40D-03 DF= -3.05D-07 DXR=  2.30D-02 DFR=  5.27D-04 which will be used.
 Iteration   5 EE= -191.344006521546     Delta-E=       -0.000579531180 Grad=1.936D-02 Max rot=    0.2401 deg.
 Gradient too large for Newton-Raphson -- use scaled steepest descent instead.
 Alpha Gap=     0.243 HL deriv= 5.06D-05
  Beta Gap=     0.149 HL deriv= 6.55D-04
     ILin= 1 X=0.000D+00 Y=-1.913440065215D+02 DE= 0.00D+00 F= -7.84D-04
     ILin= 2 X=5.000D-01 Y=-1.913442297655D+02 DE=-2.23D-04 F= -1.10D-04
     ILin= 3 X=9.000D-01 Y=-1.913441660911D+02 DE=-1.60D-04 F=  4.28D-04
     An  expanding polynomial of degree  3 produced  0.5817
 Iteration   6 EE= -191.344234226231     Delta-E=       -0.000227704684 Grad=1.360D-02 Max rot=    0.2103 deg.
 Gradient too large for Newton-Raphson -- use scaled steepest descent instead.
 Alpha Gap=     0.243 HL deriv= 3.31D-05
  Beta Gap=     0.152 HL deriv= 2.46D-04
     ILin= 1 X=0.000D+00 Y=-1.913442342262D+02 DE= 0.00D+00 F= -4.66D-04
     ILin= 2 X=5.000D-01 Y=-1.913443250135D+02 DE=-9.08D-05 F=  1.02D-04
     Accept linear search using points  1 and  2.
     An  expanding polynomial of degree  2 produced  0.2983
 Iteration   7 EE= -191.344322522282     Delta-E=       -0.000088296052 Grad=6.813D-03 Max rot=    0.1063 deg.
 QCNR:  CnvC1=3.07D-09 CnvC2=3.07D-08
 LinEq1:  Iter=  0 NonCon=     1 RMS=3.44D-04 Max=3.54D-03 NDo=     1
 AX will form     1 AO Fock derivatives at one time.
 LinEq1:  Iter=  1 NonCon=     1 RMS=9.46D-05 Max=1.44D-03 NDo=     1
 LinEq1:  Iter=  2 NonCon=     1 RMS=1.13D-04 Max=1.90D-03 NDo=     1
 LinEq1:  Iter=  3 NonCon=     1 RMS=3.94D-05 Max=3.51D-04 NDo=     1
 LinEq1:  Iter=  4 NonCon=     1 RMS=2.51D-05 Max=2.99D-04 NDo=     1
 LinEq1:  Iter=  5 NonCon=     1 RMS=1.55D-05 Max=1.78D-04 NDo=     1
 LinEq1:  Iter=  6 NonCon=     1 RMS=1.04D-05 Max=1.20D-04 NDo=     1
 LinEq1:  Iter=  7 NonCon=     1 RMS=3.72D-06 Max=3.39D-05 NDo=     1
 LinEq1:  Iter=  8 NonCon=     1 RMS=1.33D-06 Max=1.18D-05 NDo=     1
 LinEq1:  Iter=  9 NonCon=     1 RMS=5.16D-07 Max=5.12D-06 NDo=     1
 LinEq1:  Iter= 10 NonCon=     1 RMS=1.06D-07 Max=8.88D-07 NDo=     1
 LinEq1:  Iter= 11 NonCon=     1 RMS=2.46D-08 Max=3.56D-07 NDo=     1
 LinEq1:  Iter= 12 NonCon=     1 RMS=7.43D-09 Max=1.49D-07 NDo=     1
 LinEq1:  Iter= 13 NonCon=     0 RMS=2.16D-09 Max=2.50D-08 NDo=     1
 Linear equations converged to 3.074D-09 3.074D-08 after    13 iterations.
 Angle between quadratic step and gradient=  47.42 degrees.
     ILin= 1 X=0.000D+00 Y=-1.913443225223D+02 DE= 0.00D+00 F= -2.08D-04
     ILin= 2 X=1.000D+00 Y=-1.913444263339D+02 DE=-1.04D-04 F=  3.77D-07
     Accept linear search using points  1 and  2.
     An  expanding polynomial of degree  2 produced  0.9982
     Minimum is close to point  2 DX= -1.81D-03 DF= -3.41D-10 DXR=  1.81D-03 DFR=  3.29D-06 which will be used.
 Iteration   8 EE= -191.344426333930     Delta-E=       -0.000103811647 Grad=2.664D-05 Max rot=    0.0005 deg.
 QCNR:  CnvC1=2.66D-10 CnvC2=2.66D-09
 LinEq1:  Iter=  0 NonCon=     1 RMS=1.52D-06 Max=2.58D-05 NDo=     1
 LinEq1:  Iter=  1 NonCon=     1 RMS=1.70D-06 Max=3.02D-05 NDo=     1
 LinEq1:  Iter=  2 NonCon=     1 RMS=9.01D-07 Max=1.32D-05 NDo=     1
 LinEq1:  Iter=  3 NonCon=     1 RMS=9.36D-07 Max=1.18D-05 NDo=     1
 LinEq1:  Iter=  4 NonCon=     1 RMS=3.30D-07 Max=2.44D-06 NDo=     1
 LinEq1:  Iter=  5 NonCon=     1 RMS=1.88D-07 Max=1.42D-06 NDo=     1
 LinEq1:  Iter=  6 NonCon=     1 RMS=6.68D-08 Max=5.77D-07 NDo=     1
 LinEq1:  Iter=  7 NonCon=     1 RMS=1.74D-08 Max=1.61D-07 NDo=     1
 LinEq1:  Iter=  8 NonCon=     1 RMS=4.79D-09 Max=4.53D-08 NDo=     1
 LinEq1:  Iter=  9 NonCon=     1 RMS=1.92D-09 Max=1.86D-08 NDo=     1
 LinEq1:  Iter= 10 NonCon=     1 RMS=8.35D-10 Max=1.25D-08 NDo=     1
 LinEq1:  Iter= 11 NonCon=     1 RMS=3.11D-10 Max=4.58D-09 NDo=     1
 LinEq1:  Iter= 12 NonCon=     0 RMS=8.56D-11 Max=6.35D-10 NDo=     1
 Linear equations converged to 2.664D-10 2.664D-09 after    12 iterations.
 Angle between quadratic step and gradient=  51.15 degrees.
     ILin= 1 X=0.000D+00 Y=-1.913444263339D+02 DE= 0.00D+00 F= -2.07D-09
     ILin= 2 X=1.000D+00 Y=-1.913444263350D+02 DE=-1.04D-09
 Iteration   9 EE= -191.344426334965     Delta-E=       -0.000000001035 Grad=9.203D-10 Max rot=    0.0000 deg.
 Rotation gradient small -- convergence achieved.
 SCF Done:  E(UB3LYP) =  -191.344426335     a.u. after    9 cycles
            Convg  =    0.9203D-09                    44 Fock formations.
              S**2 =  0.7687                  -V/T =  2.0088
 <Sx>= 0.0000 <Sy>= 0.0000 <Sz>= 0.5000 <S**2>= 0.7687 S= 0.5093
 <L.S>= 0.000000000000E+00
 Annihilation of the first spin contaminant:
 S**2 before annihilation     0.7687,   after     0.7502
 Leave Link  508 at Tue Jan  5 15:16:07 2021, MaxMem=    33554432 cpu:        29.0
 (Enter /apps/applications/gaussian/G09.D01/2/default/g09/l801.exe)
 DoSCS=F DFT=T ScalE2(SS,OS)=  1.000000  1.000000
 Range of M.O.s used for correlation:     1    46
 NBasis=    46 NAE=    16 NBE=    15 NFC=     0 NFV=     0
 NROrb=     46 NOA=    16 NOB=    15 NVA=    30 NVB=    31
 Leave Link  801 at Tue Jan  5 15:16:08 2021, MaxMem=    33554432 cpu:         0.1
 (Enter /apps/applications/gaussian/G09.D01/2/default/g09/l1101.exe)
 Using compressed storage, NAtomX=     9.
 Will process     10 centers per pass.
 Leave Link 1101 at Tue Jan  5 15:16:08 2021, MaxMem=    33554432 cpu:         0.1
 (Enter /apps/applications/gaussian/G09.D01/2/default/g09/l1102.exe)
 Symmetrizing basis deriv contribution to polar:
 IMax=3 JMax=2 DiffMx= 0.00D+00
 Leave Link 1102 at Tue Jan  5 15:16:08 2021, MaxMem=    33554432 cpu:         0.1
 (Enter /apps/applications/gaussian/G09.D01/2/default/g09/l1110.exe)
 Forming Gx(P) for the SCF density, NAtomX=     9.
 Integral derivatives from FoFJK, PRISM(SPDF).
 Do as many integral derivatives as possible in FoFJK.
 G2DrvN: MDV=      33554256.
 G2DrvN: will do    10 centers at a time, making    1 passes.
 Calling FoFCou, ICntrl=  3107 FMM=F I1Cent=   0 AccDes= 0.00D+00.
 FoFJK:  IHMeth= 1 ICntrl=    3107 DoSepK=F KAlg= 0 I1Cent=   0 FoldK=F
 IRaf=         0 NMat=   1 IRICut=       1 DoRegI=T DoRafI=F ISym2E= 0.
 FoFCou: FMM=F IPFlag=           0 FMFlag=      100000 FMFlg1=           0
         NFxFlg=           0 DoJE=F BraDBF=F KetDBF=F FulRan=T
         wScrn=  0.000000 ICntrl=    3107 IOpCl=  1 I1Cent=           0 NGrid=           0
         NMat0=    1 NMatS0=      1 NMatT0=    0 NMatD0=    1 NMtDS0=    0 NMtDT0=    0
 Symmetry not used in FoFCou.
 End of G2Drv F.D. properties file   721 does not exist.
 End of G2Drv F.D. properties file   722 does not exist.
 End of G2Drv F.D. properties file   788 does not exist.
 Leave Link 1110 at Tue Jan  5 15:16:18 2021, MaxMem=    33554432 cpu:         9.8
 (Enter /apps/applications/gaussian/G09.D01/2/default/g09/l1002.exe)
 Minotr:  UHF open shell wavefunction.
          IDoAtm=111111111
          Direct CPHF calculation.
          Differentiating once with respect to electric field.
                with respect to dipole field.
          Differentiating once with respect to nuclear coordinates.
          Requested convergence is 1.0D-08 RMS, and 1.0D-07 maximum.
          Secondary convergence is 1.0D-12 RMS, and 1.0D-12 maximum.
          NewPWx=T KeepS1=F KeepF1=F KeepIn=T MapXYZ=F SortEE=F KeepMc=T.
          MDV=      33554246 using IRadAn=       2.
 Generate precomputed XC quadrature information.
 Keep R1 and R2 ints in memory in canonical form, NReq=2035813.
 FoFCou: FMM=F IPFlag=           0 FMFlag=           0 FMFlg1=           0
         NFxFlg=           0 DoJE=F BraDBF=F KetDBF=F FulRan=T
         wScrn=  0.000000 ICntrl=     600 IOpCl=  0 I1Cent=           0 NGrid=           0
         NMat0=    1 NMatS0=   1081 NMatT0=    0 NMatD0=    1 NMtDS0=    0 NMtDT0=    0
 Symmetry not used in FoFCou.
          Solving linear equations simultaneously, MaxMat=       0.
          There are    30 degrees of freedom in the 1st order CPHF.  IDoFFX=6 NUNeed=     3.
     27 vectors produced by pass  0 Test12= 3.15D-15 3.33D-09 XBig12= 1.50D+02 6.88D+00.
 AX will form    27 AO Fock derivatives at one time.
     27 vectors produced by pass  1 Test12= 3.15D-15 3.33D-09 XBig12= 4.18D+01 1.64D+00.
     27 vectors produced by pass  2 Test12= 3.15D-15 3.33D-09 XBig12= 4.88D-01 1.41D-01.
     27 vectors produced by pass  3 Test12= 3.15D-15 3.33D-09 XBig12= 3.35D-03 1.33D-02.
     27 vectors produced by pass  4 Test12= 3.15D-15 3.33D-09 XBig12= 1.32D-05 6.57D-04.
     27 vectors produced by pass  5 Test12= 3.15D-15 3.33D-09 XBig12= 2.85D-08 2.26D-05.
      8 vectors produced by pass  6 Test12= 3.15D-15 3.33D-09 XBig12= 5.13D-11 1.27D-06.
      2 vectors produced by pass  7 Test12= 3.15D-15 3.33D-09 XBig12= 9.33D-14 4.32D-08.
 InvSVY:  IOpt=1 It=  1 EMax= 7.11D-15
 Solved reduced A of dimension   172 with    30 vectors.
 FullF1:  Do perturbations    1 to     3.
 Isotropic polarizability for W=    0.000000       34.23 Bohr**3.
 End of Minotr F.D. properties file   721 does not exist.
 End of Minotr F.D. properties file   722 does not exist.
 End of Minotr F.D. properties file   788 does not exist.
 Leave Link 1002 at Tue Jan  5 15:16:29 2021, MaxMem=    33554432 cpu:         9.2
 (Enter /apps/applications/gaussian/G09.D01/2/default/g09/l601.exe)
 Copying SCF densities to generalized density rwf, IOpCl= 1 IROHF=0.

 **********************************************************************

            Population analysis using the SCF density.

 **********************************************************************

 Orbital symmetries:
 Alpha Orbitals:
       Occupied  (A) (A) (A) (A) (A) (A) (A) (A) (A) (A) (A) (A)
                 (A) (A) (A) (A)
       Virtual   (A) (A) (A) (A) (A) (A) (A) (A) (A) (A) (A) (A)
                 (A) (A) (A) (A) (A) (A) (A) (A) (A) (A) (A) (A)
                 (A) (A) (A) (A) (A) (A)
 Beta  Orbitals:
       Occupied  (A) (A) (A) (A) (A) (A) (A) (A) (A) (A) (A) (A)
                 (A) (A) (A)
       Virtual   (A) (A) (A) (A) (A) (A) (A) (A) (A) (A) (A) (A)
                 (A) (A) (A) (A) (A) (A) (A) (A) (A) (A) (A) (A)
                 (A) (A) (A) (A) (A) (A) (A)
 The electronic state is 2-A.
 Alpha  occ. eigenvalues --  -19.00871 -10.16694 -10.15404 -10.14403  -0.95081
 Alpha  occ. eigenvalues --   -0.80225  -0.72010  -0.55398  -0.47883  -0.45060
 Alpha  occ. eigenvalues --   -0.44486  -0.40973  -0.34707  -0.30304  -0.22780
 Alpha  occ. eigenvalues --   -0.20151
 Alpha virt. eigenvalues --    0.03787   0.09740   0.11489   0.15888   0.16325
 Alpha virt. eigenvalues --    0.18938   0.20035   0.25890   0.45621   0.66010
 Alpha virt. eigenvalues --    0.70152   0.71486   0.78157   0.81055   0.89082
 Alpha virt. eigenvalues --    0.89703   0.92373   0.97925   1.01699   1.02075
 Alpha virt. eigenvalues --    1.05920   1.07822   1.22232   1.34998   1.48988
 Alpha virt. eigenvalues --    1.61569   1.68801   1.88712   2.01943   2.84811
  Beta  occ. eigenvalues --  -18.99849 -10.16990 -10.15493 -10.13338  -0.92491
  Beta  occ. eigenvalues --   -0.78624  -0.71545  -0.54509  -0.47146  -0.44175
  Beta  occ. eigenvalues --   -0.43531  -0.39898  -0.30680  -0.29871  -0.21619
  Beta virt. eigenvalues --   -0.07512   0.04266   0.11552   0.12124   0.16374
  Beta virt. eigenvalues --    0.16798   0.19163   0.21337   0.27076   0.46017
  Beta virt. eigenvalues --    0.66284   0.70627   0.74337   0.77885   0.82304
  Beta virt. eigenvalues --    0.89591   0.89810   0.93637   0.98363   1.02068
  Beta virt. eigenvalues --    1.02725   1.06590   1.08717   1.23116   1.36153
  Beta virt. eigenvalues --    1.49779   1.65532   1.69479   1.89478   2.02326
  Beta virt. eigenvalues --    2.86799
          Condensed to atoms (all electrons):
               1          2          3          4          5          6
     1  C    5.369051   0.288026   0.366766   0.358228   0.366479  -0.060986
     2  C    0.288026   5.239646  -0.053034  -0.054980  -0.052782   0.604100
     3  H    0.366766  -0.053034   0.510387  -0.028475  -0.024406  -0.001501
     4  H    0.358228  -0.054980  -0.028475   0.519177  -0.028413   0.000199
     5  H    0.366479  -0.052782  -0.024406  -0.028413   0.508882  -0.001446
     6  C   -0.060986   0.604100  -0.001501   0.000199  -0.001446   5.114032
     7  H    0.000412  -0.051027  -0.000042   0.000062  -0.000039   0.391385
     8  O   -0.000545  -0.040837   0.000094  -0.000015   0.000106   0.179550
     9  H   -0.001112   0.006354  -0.000081   0.000030  -0.000116  -0.024537
               7          8          9
     1  C    0.000412  -0.000545  -0.001112
     2  C   -0.051027  -0.040837   0.006354
     3  H   -0.000042   0.000094  -0.000081
     4  H    0.000062  -0.000015   0.000030
     5  H   -0.000039   0.000106  -0.000116
     6  C    0.391385   0.179550  -0.024537
     7  H    0.457185  -0.026643   0.003038
     8  O   -0.026643   8.150825   0.211928
     9  H    0.003038   0.211928   0.479332
          Atomic-Atomic Spin Densities.
               1          2          3          4          5          6
     1  C   -0.086114  -0.025448   0.004405   0.014467   0.004390   0.001819
     2  C   -0.025448   0.851890  -0.008192  -0.026981  -0.008123   0.044208
     3  H    0.004405  -0.008192   0.029988  -0.010332   0.003564   0.000483
     4  H    0.014467  -0.026981  -0.010332   0.095931  -0.010267  -0.000997
     5  H    0.004390  -0.008123   0.003564  -0.010267   0.029647   0.000476
     6  C    0.001819   0.044208   0.000483  -0.000997   0.000476  -0.273670
     7  H    0.000100  -0.003006  -0.000035   0.000098  -0.000036   0.002340
     8  O    0.000014  -0.046083   0.000113  -0.000027   0.000113  -0.014677
     9  H    0.000052   0.009149  -0.000164   0.000029  -0.000148  -0.001165
               7          8          9
     1  C    0.000100   0.000014   0.000052
     2  C   -0.003006  -0.046083   0.009149
     3  H   -0.000035   0.000113  -0.000164
     4  H    0.000098  -0.000027   0.000029
     5  H   -0.000036   0.000113  -0.000148
     6  C    0.002340  -0.014677  -0.001165
     7  H    0.044753  -0.008530   0.000490
     8  O   -0.008530   0.487150  -0.006343
     9  H    0.000490  -0.006343  -0.011085
 Mulliken charges and spin densities:
               1          2
     1  C   -0.686318  -0.086315
     2  C    0.114533   0.787414
     3  H    0.230289   0.019829
     4  H    0.234186   0.061921
     5  H    0.231736   0.019615
     6  C   -0.200796  -0.241182
     7  H    0.225670   0.036173
     8  O   -0.474464   0.411729
     9  H    0.325164  -0.009184
 Sum of Mulliken charges =   0.00000   1.00000
 Mulliken charges and spin densities with hydrogens summed into heavy atoms:
               1          2
     1  C    0.009893   0.015050
     2  C    0.114533   0.787414
     6  C    0.024874  -0.205009
     8  O   -0.149300   0.402545
 APT charges:
               1
     1  C    0.073461
     2  C   -0.067943
     3  H    0.011055
     4  H    0.015241
     5  H    0.011772
     6  C    0.012769
     7  H    0.139344
     8  O   -0.380725
     9  H    0.185026
 Sum of APT charges =   0.00000
 APT charges with hydrogens summed into heavy atoms:
               1
     1  C    0.111529
     2  C   -0.067943
     6  C    0.152114
     8  O   -0.195700
 Electronic spatial extent (au):  <R**2>=            348.8169
 Charge=              0.0000 electrons
 Dipole moment (field-independent basis, Debye):
    X=             -2.6089    Y=             -0.4956    Z=             -0.1221  Tot=              2.6584
 Quadrupole moment (field-independent basis, Debye-Ang):
   XX=            -25.3776   YY=            -20.4612   ZZ=            -25.4873
   XY=              1.9009   XZ=             -0.1982   YZ=              0.1718
 Traceless Quadrupole moment (field-independent basis, Debye-Ang):
   XX=             -1.6023   YY=              3.3142   ZZ=             -1.7119
   XY=              1.9009   XZ=             -0.1982   YZ=              0.1718
 Octapole moment (field-independent basis, Debye-Ang**2):
  XXX=             -8.4105  YYY=             -5.3866  ZZZ=              0.0463  XYY=              7.7809
  XXY=              1.7313  XXZ=             -0.2011  XZZ=              1.0431  YZZ=             -2.8007
  YYZ=             -0.2402  XYZ=              0.2549
 Hexadecapole moment (field-independent basis, Debye-Ang**3):
 XXXX=           -330.3936 YYYY=            -69.3508 ZZZZ=            -29.8276 XXXY=              1.3238
 XXXZ=             -0.2942 YYYX=             -3.2305 YYYZ=              0.3340 ZZZX=             -0.1167
 ZZZY=              0.0533 XXYY=            -56.8388 XXZZ=            -59.1563 YYZZ=            -17.9873
 XXYZ=              0.3375 YYXZ=             -0.2579 ZZXY=              0.7722
 N-N= 1.037755838906D+02 E-N=-6.541120950664D+02  KE= 1.896763524346D+02
  Exact polarizability:  54.493   0.757  31.883   0.070   0.240  16.302
 Approx polarizability:  92.551  -0.201  43.567   0.449   0.258  19.898
                          Isotropic Fermi Contact Couplings
        Atom                 a.u.       MegaHertz       Gauss      10(-4) cm-1
     1  C(13)             -0.02688     -30.21882     -10.78282     -10.07991
     2  C(13)              0.08172      91.87329      32.78267      30.64563
     3  H(1)               0.00800      35.77871      12.76673      11.93449
     4  H(1)               0.02592     115.84237      41.33544      38.64086
     5  H(1)               0.00789      35.28707      12.59130      11.77050
     6  C(13)             -0.04995     -56.14884     -20.03530     -18.72924
     7  H(1)               0.01355      60.55890      21.60892      20.20027
     8  O(17)              0.02705     -16.39942      -5.85172      -5.47026
     9  H(1)              -0.00601     -26.85661      -9.58310      -8.95840
 --------------------------------------------------------
       Center         ----  Spin Dipole Couplings  ----
                      3XX-RR        3YY-RR        3ZZ-RR
 --------------------------------------------------------
     1   Atom        0.011352      0.002394     -0.013746
     2   Atom       -0.189968      0.498143     -0.308175
     3   Atom        0.005693     -0.000382     -0.005311
     4   Atom        0.015406     -0.008455     -0.006951
     5   Atom        0.005679     -0.000537     -0.005142
     6   Atom        0.055609      0.002693     -0.058302
     7   Atom       -0.000147      0.003533     -0.003386
     8   Atom        0.998239     -0.235486     -0.762753
     9   Atom        0.003610      0.054514     -0.058125
 --------------------------------------------------------
                        XY            XZ            YZ
 --------------------------------------------------------
     1   Atom        0.005765     -0.000090     -0.000123
     2   Atom       -0.455837      0.004138     -0.007638
     3   Atom        0.008033      0.006431      0.003420
     4   Atom        0.001512     -0.000021      0.000015
     5   Atom        0.007871     -0.006630     -0.003547
     6   Atom        0.075180     -0.000211      0.000041
     7   Atom       -0.006897     -0.000011     -0.000124
     8   Atom       -0.910130      0.011859     -0.002839
     9   Atom        0.034746      0.004512      0.009132
 --------------------------------------------------------


 ---------------------------------------------------------------------------------
              Anisotropic Spin Dipole Couplings in Principal Axis System
 ---------------------------------------------------------------------------------

       Atom             a.u.   MegaHertz   Gauss  10(-4) cm-1        Axes

              Baa    -0.0137    -1.845    -0.658    -0.615  0.0020  0.0069  1.0000
     1 C(13)  Bbb    -0.0004    -0.057    -0.020    -0.019 -0.4397  0.8982 -0.0053
              Bcc     0.0142     1.902     0.679     0.634  0.8982  0.4396 -0.0048
 
              Baa    -0.4170   -55.960   -19.968   -18.666  0.8951  0.4458 -0.0027
     2 C(13)  Bbb    -0.3082   -41.364   -14.760   -13.797 -0.0013  0.0087  1.0000
              Bcc     0.7253    97.324    34.728    32.464 -0.4458  0.8951 -0.0084
 
              Baa    -0.0083    -4.424    -1.579    -1.476 -0.4514  0.0740  0.8892
     3 H(1)   Bbb    -0.0057    -3.027    -1.080    -1.010 -0.4362  0.8511 -0.2922
              Bcc     0.0140     7.451     2.659     2.485  0.7784  0.5198  0.3519
 
              Baa    -0.0086    -4.562    -1.628    -1.522 -0.0630  0.9980 -0.0104
     4 H(1)   Bbb    -0.0070    -3.709    -1.323    -1.237  0.0002  0.0104  0.9999
              Bcc     0.0155     8.271     2.951     2.759  0.9980  0.0630 -0.0009
 
              Baa    -0.0083    -4.427    -1.580    -1.477  0.4509 -0.0501  0.8912
     5 H(1)   Bbb    -0.0057    -3.023    -1.079    -1.009 -0.4375  0.8578  0.2696
              Bcc     0.0140     7.450     2.659     2.485  0.7780  0.5115 -0.3649
 
              Baa    -0.0583    -7.824    -2.792    -2.610  0.0123 -0.0158  0.9998
     6 C(13)  Bbb    -0.0505    -6.783    -2.420    -2.262 -0.5778  0.8159  0.0200
              Bcc     0.1089    14.607     5.212     4.872  0.8161  0.5779 -0.0009
 
              Baa    -0.0054    -2.907    -1.037    -0.970  0.7922  0.6089  0.0410
     7 H(1)   Bbb    -0.0034    -1.805    -0.644    -0.602 -0.0371 -0.0190  0.9991
              Bcc     0.0088     4.712     1.682     1.572 -0.6091  0.7930 -0.0075
 
              Baa    -0.7630    55.212    19.701    18.417 -0.0363 -0.0573  0.9977
     8 O(17)  Bbb    -0.7179    51.947    18.536    17.327  0.4671  0.8816  0.0677
              Bcc     1.4809  -107.158   -38.237   -35.744  0.8835 -0.4685  0.0053
 
              Baa    -0.0589   -31.435   -11.217   -10.486 -0.0329 -0.0702  0.9970
     9 H(1)   Bbb    -0.0140    -7.474    -2.667    -2.493  0.8920 -0.4520 -0.0023
              Bcc     0.0729    38.909    13.884    12.979  0.4508  0.8893  0.0775
 

 ---------------------------------------------------------------------------------

 No NMR shielding tensors so no spin-rotation constants.
 Leave Link  601 at Tue Jan  5 15:16:30 2021, MaxMem=    33554432 cpu:         0.2
 (Enter /apps/applications/gaussian/G09.D01/2/default/g09/l701.exe)
 Compute integral second derivatives.
 ... and contract with generalized density number  0.
 Leave Link  701 at Tue Jan  5 15:16:30 2021, MaxMem=    33554432 cpu:         0.1
 (Enter /apps/applications/gaussian/G09.D01/2/default/g09/l702.exe)
 L702 exits ... SP integral derivatives will be done elsewhere.
 Leave Link  702 at Tue Jan  5 15:16:30 2021, MaxMem=    33554432 cpu:         0.1
 (Enter /apps/applications/gaussian/G09.D01/2/default/g09/l703.exe)
 Compute integral second derivatives, UseDBF=F ICtDFT=           0.
 Integral derivatives from FoFJK, PRISM(SPDF).
 Calling FoFJK, ICntrl=    100127 FMM=F ISym2X=0 I1Cent= 0 IOpClX= 1 NMat=1 NMatS=1 NMatT=0.
 FoFJK:  IHMeth= 1 ICntrl=  100127 DoSepK=F KAlg= 0 I1Cent=   0 FoldK=F
 IRaf=         0 NMat=   1 IRICut=       1 DoRegI=T DoRafI=F ISym2E= 0.
 FoFCou: FMM=F IPFlag=           0 FMFlag=      100000 FMFlg1=         800
         NFxFlg=           0 DoJE=F BraDBF=F KetDBF=F FulRan=T
         wScrn=  0.000000 ICntrl=  100127 IOpCl=  1 I1Cent=           0 NGrid=           0
         NMat0=    1 NMatS0=      1 NMatT0=    0 NMatD0=    1 NMtDS0=    0 NMtDT0=    0
 Symmetry not used in FoFCou.
 Leave Link  703 at Tue Jan  5 15:16:38 2021, MaxMem=    33554432 cpu:         8.4
 (Enter /apps/applications/gaussian/G09.D01/2/default/g09/l716.exe)
 Dipole        =-1.02643403D+00-1.95000643D-01-4.80216228D-02
 Polarizability= 5.44931854D+01 7.56867143D-01 3.18828767D+01
                 6.95086356D-02 2.40141763D-01 1.63016591D+01
 ***** Axes restored to original set *****
 -------------------------------------------------------------------
 Center     Atomic                   Forces (Hartrees/Bohr)
 Number     Number              X              Y              Z
 -------------------------------------------------------------------
      1        6          -0.021811269   -0.005189092   -0.014455170
      2        6           0.032592915    0.008188614    0.001284867
      3        1           0.001040177    0.003480115   -0.000888499
      4        1          -0.001991677   -0.000530648    0.002769139
      5        1           0.002818837   -0.002868859   -0.000767611
      6        6          -0.044316750   -0.011062847    0.050454823
      7        1           0.013526149    0.003490288   -0.007783255
      8        8           0.048104359    0.014419542   -0.025394132
      9        1          -0.029962740   -0.009927114   -0.005220161
 -------------------------------------------------------------------
 Cartesian Forces:  Max     0.050454823 RMS     0.020150749
 Force constants in Cartesian coordinates: 
                1             2             3             4             5 
      1  0.531649D+00
      2  0.824214D-02  0.504060D+00
      3  0.243961D-01  0.559607D-02  0.481805D+00
      4 -0.239969D+00 -0.453067D-01 -0.113754D+00  0.808174D+00
      5 -0.454313D-01 -0.688737D-01 -0.280909D-01  0.183422D+00  0.125609D+00
      6 -0.123425D+00 -0.303204D-01 -0.959154D-01  0.495677D+00  0.124615D+00
      7 -0.733046D-01 -0.710742D-01  0.183515D-01 -0.199637D-01 -0.302060D-01
      8 -0.680653D-01 -0.245273D+00  0.516680D-01 -0.925462D-02 -0.454793D-02
      9  0.174871D-01  0.502024D-01 -0.578296D-01 -0.970429D-02 -0.213202D-01
     10 -0.511046D-01 -0.132097D-02  0.355510D-01 -0.490212D-02 -0.120475D-02
     11 -0.128433D-02 -0.449291D-01  0.703411D-02 -0.966756D-03 -0.135703D-02
     12  0.434588D-01  0.895259D-02 -0.264851D+00 -0.162037D-01 -0.410347D-02
     13 -0.165449D+00  0.112150D+00  0.377813D-01 -0.326778D-01  0.156172D-01
     14  0.109120D+00 -0.153691D+00 -0.356347D-01 -0.546857D-02  0.853555D-02
     15  0.364094D-01 -0.347326D-01 -0.565987D-01 -0.183725D-01  0.143765D-01
     16 -0.185723D-02 -0.122223D-02 -0.887254D-04 -0.534447D+00 -0.126159D+00
     17 -0.119669D-02  0.307330D-02  0.177788D-04 -0.125721D+00 -0.693038D-01
     18 -0.444551D-02 -0.107566D-02 -0.103356D-01 -0.256092D+00 -0.644752D-01
     19  0.328615D-03 -0.109026D-02  0.535636D-03  0.238185D-02  0.478791D-03
     20 -0.103791D-02  0.425750D-02  0.167691D-03  0.375106D-03  0.744786D-03
     21 -0.424435D-03 -0.114360D-03  0.301115D-02 -0.257455D-01 -0.639861D-02
     22 -0.722271D-04 -0.352114D-03 -0.172659D-02  0.178440D-01  0.255187D-02
     23 -0.346513D-03  0.160814D-02 -0.435639D-03  0.189887D-02  0.851478D-02
     24  0.673158D-02  0.161765D-02  0.718564D-03 -0.517817D-01 -0.135780D-01
     25 -0.221530D-03 -0.260663D-04 -0.104582D-02  0.355964D-02  0.930984D-03
     26  0.000000D+00 -0.232471D-03 -0.322440D-03  0.102063D-02  0.678374D-03
     27 -0.187902D-03 -0.125723D-03 -0.415697D-05 -0.402309D-02 -0.102493D-02
                6             7             8             9            10 
      6  0.376272D+00
      7 -0.439185D-03  0.853440D-01
      8 -0.565423D-02  0.831602D-01  0.272739D+00
      9  0.480441D-03 -0.150812D-01 -0.546181D-01  0.656572D-01
     10 -0.349696D-01 -0.231122D-02  0.252769D-03  0.113781D-01  0.629151D-01
     11 -0.866173D-02 -0.530981D-02 -0.217120D-02  0.324667D-01  0.348972D-02
     12 -0.200206D-01  0.281349D-02  0.930186D-03 -0.925359D-02 -0.358682D-01
     13 -0.327013D-02  0.910499D-02 -0.718975D-02 -0.283520D-02 -0.442997D-02
     14  0.463395D-02  0.224467D-01 -0.208318D-01 -0.772689D-02 -0.101620D-02
     15  0.153075D-03 -0.633852D-02  0.587415D-02  0.441895D-03  0.249672D-01
     16 -0.343561D+00  0.151628D-02  0.866594D-03 -0.163202D-02  0.227655D-03
     17 -0.863463D-01  0.198406D-03 -0.120699D-03  0.232036D-03 -0.486040D-04
     18 -0.162395D+00  0.226852D-02  0.310230D-02  0.145627D-02  0.153853D-02
     19  0.559402D-02 -0.431202D-03 -0.139586D-03 -0.191250D-03 -0.328145D-05
     20  0.137282D-02  0.982857D-03  0.571446D-03  0.872119D-03 -0.132061D-03
     21 -0.113997D-01 -0.409083D-03 -0.232826D-03 -0.250113D-03  0.492421D-04
     22  0.644238D-03 -0.477242D-04  0.334107D-03  0.553841D-03 -0.285848D-03
     23 -0.120432D-02  0.148673D-03 -0.248950D-03  0.142580D-03 -0.135083D-05
     24 -0.845574D-01 -0.115153D-02 -0.932964D-03 -0.370244D-03 -0.278005D-02
     25  0.375012D-02  0.931057D-04  0.355782D-04  0.249739D-04 -0.105778D-03
     26  0.156539D-02 -0.346798D-03 -0.117273D-03 -0.250663D-03 -0.185594D-04
     27 -0.261811D-02 -0.139878D-04 -0.136492D-03 -0.332286D-03  0.133863D-03
               11            12            13            14            15 
     11  0.483359D-01
     12 -0.682227D-02  0.303178D+00
     13  0.430362D-02  0.288334D-02  0.191699D+00
     14 -0.459421D-03  0.323981D-03 -0.124783D+00  0.167072D+00
     15 -0.237885D-01 -0.884703D-02 -0.360539D-01  0.396486D-01  0.642889D-01
     16 -0.115640D-03  0.254174D-02  0.152964D-02 -0.645990D-04 -0.135629D-02
     17  0.529008D-03  0.658244D-03  0.740546D-03 -0.247323D-03 -0.898546D-03
     18  0.405086D-03  0.379865D-02  0.333877D-02 -0.169725D-02  0.145151D-02
     19 -0.140810D-03  0.440002D-04  0.154679D-03 -0.851087D-04  0.252342D-03
     20  0.517225D-03  0.466034D-05 -0.119385D-02  0.000000D+00 -0.844356D-03
     21  0.613796D-05 -0.364962D-03 -0.439073D-03  0.178939D-04 -0.234254D-03
     22  0.452007D-04  0.290059D-03  0.167493D-03 -0.124443D-03  0.645894D-03
     23 -0.439443D-03  0.444773D-04 -0.769846D-04 -0.368244D-03  0.211184D-04
     24 -0.690762D-03 -0.358238D-02 -0.137840D-02  0.291997D-03 -0.344998D-03
     25 -0.211963D-04  0.404037D-04 -0.996818D-04 -0.245719D-04 -0.153611D-03
     26 -0.259213D-04  0.115918D-04  0.432253D-03 -0.976044D-05  0.343666D-03
     27  0.512030D-04 -0.571950D-04 -0.266965D-04  0.142404D-03 -0.310501D-03
               16            17            18            19            20 
     16  0.991539D+00
     17  0.231243D+00  0.142242D+00
     18  0.350802D+00  0.875803D-01  0.686652D-01
     19 -0.399895D+00 -0.956617D-01 -0.502314D-01  0.404295D+00
     20 -0.956772D-01 -0.454478D-01 -0.128273D-01  0.999509D-01  0.338481D-01
     21 -0.344002D-01 -0.894425D-02 -0.270751D-02  0.331630D-01  0.840303D-02
     22 -0.547120D-01 -0.956557D-02 -0.317266D-01 -0.778725D-02 -0.288457D-02
     23 -0.101860D-01 -0.270212D-01 -0.543910D-02 -0.320645D-02  0.347109D-02
     24 -0.610176D-03 -0.150973D-02  0.925015D-01  0.893045D-02  0.255319D-02
     25 -0.390101D-02  0.115078D-04 -0.154527D-01  0.957040D-03 -0.383351D-03
     26  0.131571D-02 -0.370356D-02 -0.557317D-02 -0.105811D-03  0.203833D-02
     27  0.283047D-01  0.921047D-02  0.756475D-02  0.190323D-02  0.298164D-03
               21            22            23            24            25 
     21  0.390772D-01
     22  0.267100D-01  0.515142D+00
     23  0.741001D-02  0.174872D+00  0.516011D-01
     24 -0.202208D-01  0.146840D-01  0.355372D-02  0.372699D-01
     25  0.149615D-02 -0.470248D+00 -0.163102D+00  0.273558D-01  0.469966D+00
     26 -0.147027D-03 -0.164876D+00 -0.371173D-01  0.869491D-02  0.162579D+00
     27 -0.691102D-02 -0.100748D-01 -0.409284D-02 -0.214141D-01 -0.160153D-01
               26            27 
     26  0.384895D-01
     27 -0.432226D-02  0.240826D-01
 Leave Link  716 at Tue Jan  5 15:16:38 2021, MaxMem=    33554432 cpu:         0.0
 (Enter /apps/applications/gaussian/G09.D01/2/default/g09/l103.exe)

 GradGradGradGradGradGradGradGradGradGradGradGradGradGradGradGradGradGrad
 Berny optimization.
 Search for a saddle point.
 Step number   1 out of a maximum of  100
 All quantities printed in internal units (Hartrees-Bohrs-Radians)
 Swapping is turned off.
 Second derivative matrix not updated -- analytic derivatives used.
 ITU=  0
     Eigenvalues ---   -0.12594  -0.02594  -0.00177   0.00190   0.01016
     Eigenvalues ---    0.01628   0.05279   0.07203   0.07786   0.10081
     Eigenvalues ---    0.10821   0.11523   0.13073   0.15060   0.24869
     Eigenvalues ---    0.49186   0.65233   0.67358   0.84135   0.95893
     Eigenvalues ---    2.00097
 Eigenvectors required to have negative eigenvalues:
                          Z6        Z8        X6        X9        X8
   1                    0.75856  -0.51654  -0.25748   0.13956   0.13913
                          X7        Z2        Z7        X2        Y9
   1                   -0.11068  -0.10835  -0.10643   0.07682   0.06146
 Eigenvalue     2 is  -2.59D-02 should be greater than     0.000000 Eigenvector:
                          Y9        Y8        X9        Y7        X8
   1                    0.83862  -0.37513  -0.28086   0.13608   0.12710
                          Y2        Y5        X3        Y4        Y6
   1                    0.09061  -0.08411   0.07613  -0.06409   0.06121
 Eigenvalue     3 is  -1.77D-03 should be greater than     0.000000 Eigenvector:
                          Z3        Z9        Z5        X4        Z2
   1                    0.37374  -0.37372   0.35601  -0.35090  -0.32628
                          X2        X9        X8        Z7        Z1
   1                    0.29777  -0.25072  -0.24405   0.20060   0.16861
 RFO step:  Lambda0=2.905824345D-02 Lambda=-2.59708966D-02.
 Linear search not attempted -- option 19 set.
 Maximum step size (   0.300) exceeded in Quadratic search.
    -- Step size scaled by   0.297
 TrRot=  0.008615 -0.044229  0.059263 -1.190161 -0.011101  1.187946
 Variable       Old X    -DE/DX   Delta X   Delta X   Delta X     New X
                                 (Linear)    (Quad)   (Total)
    X1      -13.36321  -0.02181   0.00000  -0.01144  -0.00541 -13.36862
    Y1        1.12536  -0.00519   0.00000   0.00517   0.00334   1.12869
    Z1        1.25845  -0.01446   0.00000   0.01561   0.00769   1.26614
    X2      -11.09057   0.03259   0.00000   0.05082   0.05288 -11.03768
    Y2        1.68664   0.00819   0.00000  -0.00846  -0.00251   1.68413
    Z2        2.57295   0.00128   0.00000  -0.04426  -0.04821   2.52474
    X3      -14.08304   0.00104   0.00000  -0.00724  -0.00742 -14.09046
    Y3       -0.78348   0.00348   0.00000   0.01613   0.02093  -0.76255
    Z3        1.71066  -0.00089   0.00000   0.04423   0.05286   1.76352
    X4      -13.06452  -0.00199   0.00000  -0.05824  -0.04355 -13.10807
    Y4        1.18302  -0.00053   0.00000  -0.00056  -0.02431   1.15871
    Z4       -0.81392   0.00277   0.00000   0.01533   0.00805  -0.80587
    X5      -14.87689   0.00282   0.00000   0.02156   0.02878 -14.84810
    Y5        2.50253  -0.00287   0.00000   0.01949   0.02568   2.52821
    Z5        1.68602  -0.00077   0.00000   0.05885   0.03043   1.71645
    X6       -9.19592  -0.04432   0.00000   0.04590   0.04355  -9.15237
    Y6        2.16750  -0.01106   0.00000  -0.00304   0.01242   2.17991
    Z6        3.94228   0.05045   0.00000  -0.08589  -0.08710   3.85519
    X7       -7.27244   0.01353   0.00000   0.04558   0.04305  -7.22939
    Y7        2.65329   0.00349   0.00000  -0.02290  -0.00867   2.64462
    Z7        4.11996  -0.00778   0.00000   0.02866   0.03062   4.15058
    X8       -9.95444   0.04810   0.00000  -0.07274  -0.08907 -10.04351
    Y8        2.00596   0.01442   0.00000   0.07496   0.12684   2.13280
    Z8        7.13664  -0.02539   0.00000   0.06644   0.06225   7.19888
    X9      -11.68797  -0.02996   0.00000  -0.00482  -0.02282 -11.71079
    Y9        1.42494  -0.00993   0.00000  -0.20870  -0.15372   1.27122
    Z9        7.19982  -0.00522   0.00000  -0.05440  -0.05659   7.14323
         Item               Value     Threshold  Converged?
 Maximum Force            0.050455     0.000450     NO 
 RMS     Force            0.020151     0.000300     NO 
 Maximum Displacement     0.153720     0.001800     NO 
 RMS     Displacement     0.054850     0.001200     NO 
 Predicted change in Energy= 4.570568D-03
 Lowest energy point so far.  Saving SCF results.
 GradGradGradGradGradGradGradGradGradGradGradGradGradGradGradGradGradGrad

 Leave Link  103 at Tue Jan  5 15:16:38 2021, MaxMem=    33554432 cpu:         0.0
 (Enter /apps/applications/gaussian/G09.D01/2/default/g09/l202.exe)
                          Input orientation:                          
 ---------------------------------------------------------------------
 Center     Atomic      Atomic             Coordinates (Angstroms)
 Number     Number       Type             X           Y           Z
 ---------------------------------------------------------------------
      1          6           0       -7.074371    0.597280    0.670014
      2          6           0       -5.840891    0.891201    1.336035
      3          1           0       -7.456350   -0.403522    0.933213
      4          1           0       -6.936492    0.613165   -0.426446
      5          1           0       -7.857278    1.337872    0.908307
      6          6           0       -4.843225    1.153560    2.040076
      7          1           0       -3.825627    1.399474    2.196392
      8          8           0       -5.314796    1.128630    3.809485
      9          1           0       -6.197083    0.672700    3.780035
 ---------------------------------------------------------------------
                    Distance matrix (angstroms):
                    1          2          3          4          5
     1  C    0.000000
     2  C    1.432288   0.000000
     3  H    1.103080   2.109095   0.000000
     4  H    1.105209   2.093798   1.775549   0.000000
     5  H    1.103723   2.109096   1.787125   1.776123   0.000000
     6  C    2.676664   1.248937   3.236985   3.279867   3.224809
     7  H    3.677999   2.249409   4.246005   4.144278   4.232867
     8  O    3.637955   2.539902   3.899575   4.564945   3.863268
     9  H    3.232268   2.479466   3.293692   4.271388   3.383124
                    6          7          8          9
     6  C    0.000000
     7  H    1.058495   0.000000
     8  O    1.831341   2.212024   0.000000
     9  H    2.256461   2.942776   0.993565   0.000000
 Stoichiometry    C3H5O(2)
 Framework group  C1[X(C3H5O)]
 Deg. of freedom    21
 Full point group                 C1      NOp   1
 RotChk:  IX=0 Diff= 4.05D-02
 Largest Abelian subgroup         C1      NOp   1
 Largest concise Abelian subgroup C1      NOp   1
                         Standard orientation:                         
 ---------------------------------------------------------------------
 Center     Atomic      Atomic             Coordinates (Angstroms)
 Number     Number       Type             X           Y           Z
 ---------------------------------------------------------------------
      1          6           0       -1.816226   -0.293164    0.009426
      2          6           0       -0.551570    0.378860   -0.012384
      3          1           0       -1.959679   -0.930045   -0.879725
      4          1           0       -2.644253    0.438777    0.020419
      5          1           0       -1.931035   -0.924901    0.907163
      6          6           0        0.611610    0.833668   -0.010321
      7          1           0        1.330848    1.610256   -0.014933
      8          8           0        1.812716   -0.548151    0.031253
      9          1           0        1.239505   -1.325066   -0.203272
 ---------------------------------------------------------------------
 Rotational constants (GHZ):     21.2661501      4.2191256      3.6043810
 Leave Link  202 at Tue Jan  5 15:16:38 2021, MaxMem=    33554432 cpu:         0.0
 (Enter /apps/applications/gaussian/G09.D01/2/default/g09/l301.exe)
 Standard basis: 3-21G (6D, 7F)
 Ernie: Thresh=  0.10000D-02 Tol=  0.10000D-05 Strict=F.
 There are    46 symmetry adapted cartesian basis functions of A   symmetry.
 There are    46 symmetry adapted basis functions of A   symmetry.
    46 basis functions,    75 primitive gaussians,    46 cartesian basis functions
    16 alpha electrons       15 beta electrons
       nuclear repulsion energy       102.7302874074 Hartrees.
 IExCor=  402 DFT=T Ex+Corr=B3LYP ExCW=0 ScaHFX=  0.200000
 ScaDFX=  0.800000  0.720000  1.000000  0.810000 ScalE2=  1.000000  1.000000
 IRadAn=      0 IRanWt=     -1 IRanGd=            0 ICorTp=0 IEmpDi=  4
 NAtoms=    9 NActive=    9 NUniq=    9 SFac= 1.00D+00 NAtFMM=   60 NAOKFM=F Big=F
 Integral buffers will be    131072 words long.
 Raffenetti 2 integral format.
 Two-electron integral symmetry is turned on.
 Leave Link  301 at Tue Jan  5 15:16:39 2021, MaxMem=    33554432 cpu:         0.1
 (Enter /apps/applications/gaussian/G09.D01/2/default/g09/l302.exe)
 NPDir=0 NMtPBC=     1 NCelOv=     1 NCel=       1 NClECP=     1 NCelD=      1
         NCelK=      1 NCelE2=     1 NClLst=     1 CellRange=     0.0.
 One-electron integrals computed using PRISM.
 NBasis=    46 RedAO= T EigKep=  2.54D-03  NBF=    46
 NBsUse=    46 1.00D-06 EigRej= -1.00D+00 NBFU=    46
 Precomputing XC quadrature grid using
 IXCGrd= 4 IRadAn=           0 IRanWt=          -1 IRanGd=           0 AccXCQ= 0.00D+00.
 Generated NRdTot=       0 NPtTot=           0 NUsed=           0 NTot=          32
 NSgBfM=    46    46    46    46    46 MxSgAt=     9 MxSgA2=     9.
 Leave Link  302 at Tue Jan  5 15:16:39 2021, MaxMem=    33554432 cpu:         0.2
 (Enter /apps/applications/gaussian/G09.D01/2/default/g09/l303.exe)
 DipDrv:  MaxL=1.
 Leave Link  303 at Tue Jan  5 15:16:39 2021, MaxMem=    33554432 cpu:         0.0
 (Enter /apps/applications/gaussian/G09.D01/2/default/g09/l401.exe)
 Initial guess from the checkpoint file:  "/nobackup/chmrsh/Scratch/Gau-47639.chk"
 B after Tr=     0.000000    0.000000    0.000000
         Rot=    0.999993   -0.001716   -0.000491   -0.003384 Ang=  -0.44 deg.
 Guess basis will be translated and rotated to current coordinates.
 JPrj=2 DoOrth=T DoCkMO=T.
 Initial guess <Sx>= 0.0000 <Sy>= 0.0000 <Sz>= 0.5000 <S**2>= 0.7694 S= 0.5096
 Generating alternative initial guess.
 ExpMin= 1.83D-01 ExpMax= 3.22D+02 ExpMxC= 3.22D+02 IAcc=1 IRadAn=         1 AccDes= 0.00D+00
 Harris functional with IExCor=  402 and IRadAn=       1 diagonalized for initial guess.
 HarFok:  IExCor=  402 AccDes= 0.00D+00 IRadAn=         1 IDoV= 1 UseB2=F ITyADJ=14
 ICtDFT=  3500011 ScaDFX=  1.000000  1.000000  1.000000  1.000000
 FoFCou: FMM=F IPFlag=           0 FMFlag=      100000 FMFlg1=           0
         NFxFlg=           0 DoJE=T BraDBF=F KetDBF=T FulRan=T
         wScrn=  0.000000 ICntrl=     500 IOpCl=  0 I1Cent=   200000004 NGrid=           0
         NMat0=    1 NMatS0=      1 NMatT0=    0 NMatD0=    1 NMtDS0=    0 NMtDT0=    0
 Petite list used in FoFCou.
 Harris En= -191.351166180131    
 Leave Link  401 at Tue Jan  5 15:16:39 2021, MaxMem=    33554432 cpu:         0.3
 (Enter /apps/applications/gaussian/G09.D01/2/default/g09/l508.exe)
 Direct SCF.
 Tight linear equation convergence will be used.
 UB3LYP wavefunction.
 Quadratic Convergence SCF Method.
 Line search only if initial step raises energy.
 Integral symmetry usage will be decided dynamically.
 ReadGW:  IGet=1 IStart=         402 Next=         402 LGW=           0.
 Keep R1 and R2 ints in memory in canonical form, NReq=2054798.
 FoFCou: FMM=F IPFlag=           0 FMFlag=           0 FMFlg1=           0
         NFxFlg=           0 DoJE=F BraDBF=F KetDBF=F FulRan=T
         wScrn=  0.000000 ICntrl=     600 IOpCl=  0 I1Cent=           0 NGrid=           0
         NMat0=    1 NMatS0=   1081 NMatT0=    0 NMatD0=    1 NMtDS0=    0 NMtDT0=    0
 Symmetry not used in FoFCou.
 Iteration   1 EE= -191.331563319127                                    Grad=8.719D-02 Max rot=    0.7217 deg.
 Gradient too large for Newton-Raphson -- use scaled steepest descent instead.
 Alpha Gap=     0.470 HL deriv= 1.89D-03
  Beta Gap=     0.462 HL deriv= 1.87D-03
     ILin= 1 X=0.000D+00 Y=-1.913315633191D+02 DE= 0.00D+00 F= -1.08D-02
     ILin= 2 X=3.000D-01 Y=-1.913342773399D+02 DE=-2.71D-03 F= -7.28D-03
     ILin= 3 X=6.000D-01 Y=-1.913359300548D+02 DE=-4.37D-03 F= -3.74D-03
     ILin= 4 X=1.200D+00 Y=-1.913360338180D+02 DE=-4.47D-03 F=  3.40D-03
     Accept linear search using points  3 and  4.
     An  expanding polynomial of degree  4 produced  0.9060
 Iteration   2 EE= -191.336517782734     Delta-E=       -0.004954463606 Grad=5.157D-02 Max rot=    0.7171 deg.
 Gradient too large for Newton-Raphson -- use scaled steepest descent instead.
 Alpha Gap=     0.475 HL deriv= 2.78D-03
  Beta Gap=     0.478 HL deriv= 2.75D-04
     ILin= 1 X=0.000D+00 Y=-1.913365177827D+02 DE= 0.00D+00 F= -4.28D-03
     ILin= 2 X=5.000D-01 Y=-1.913376241357D+02 DE=-1.11D-03 F= -1.44D-04
     Reject lnstep minimum 6.169D-01 FVal=-1.913376472158D+02 Lims=  0.00D+00  5.00D-01
     ILin= 3 X=1.000D+00 Y=-1.913366619835D+02 DE=-1.44D-04 F=  3.99D-03
     An  expanding polynomial of degree  3 produced  0.5174
     Minimum is close to point  2 DX=  1.74D-02 DF= -1.26D-06 DXR=  3.37D-02 DFR=  1.14D-03 which will be used.
 Iteration   3 EE= -191.337624135691     Delta-E=       -0.001106352957 Grad=2.730D-02 Max rot=    0.3530 deg.
 Gradient too large for Newton-Raphson -- use scaled steepest descent instead.
 Alpha Gap=     0.471 HL deriv= 6.71D-04
  Beta Gap=     0.467 HL deriv= 4.88D-04
     ILin= 1 X=0.000D+00 Y=-1.913376241357D+02 DE= 0.00D+00 F= -1.38D-03
     ILin= 2 X=7.000D-01 Y=-1.913382014368D+02 DE=-5.77D-04 F= -2.72D-04
     Reject lnstep minimum 1.261D+00 FVal=-1.913383716820D+02 Lims=  0.00D+00  7.00D-01
     ILin= 3 X=1.400D+00 Y=-1.913380045902D+02 DE=-3.80D-04 F=  8.35D-04
     An  expanding polynomial of degree  3 produced  0.8720
 Iteration   4 EE= -191.338224879162     Delta-E=       -0.000600743472 Grad=2.943D-02 Max rot=    0.4251 deg.
 Gradient too large for Newton-Raphson -- use scaled steepest descent instead.
 Alpha Gap=     0.475 HL deriv= 1.84D-03
  Beta Gap=     0.475 HL deriv= 5.80D-04
     ILin= 1 X=0.000D+00 Y=-1.913382248792D+02 DE= 0.00D+00 F= -1.46D-03
     ILin= 2 X=7.000D-01 Y=-1.913385412718D+02 DE=-3.16D-04 F=  5.60D-04
     Accept linear search using points  1 and  2.
     An  expanding polynomial of degree  2 produced  0.4420
 Iteration   5 EE= -191.338589464475     Delta-E=       -0.000364585313 Grad=1.527D-02 Max rot=    0.2051 deg.
 Gradient too large for Newton-Raphson -- use scaled steepest descent instead.
 Alpha Gap=     0.472 HL deriv= 4.78D-04
  Beta Gap=     0.469 HL deriv= 4.42D-04
     ILin= 1 X=0.000D+00 Y=-1.913385894645D+02 DE= 0.00D+00 F= -4.51D-04
     ILin= 2 X=6.000D-01 Y=-1.913388097775D+02 DE=-2.20D-04 F= -2.83D-04
     ILin= 3 X=1.200D+00 Y=-1.913389294332D+02 DE=-3.40D-04 F= -1.15D-04
     ILin= 4 X=2.500D+00 Y=-1.913388419229D+02 DE=-2.52D-04 F=  2.50D-04
     An  expanding polynomial of degree  4 produced  1.6110
 Iteration   6 EE= -191.338953146765     Delta-E=       -0.000363682290 Grad=2.428D-02 Max rot=    0.3384 deg.
 Gradient too large for Newton-Raphson -- use scaled steepest descent instead.
 Alpha Gap=     0.475 HL deriv= 1.27D-03
  Beta Gap=     0.475 HL deriv= 3.26D-04
     ILin= 1 X=0.000D+00 Y=-1.913389531468D+02 DE= 0.00D+00 F= -9.87D-04
     ILin= 2 X=8.000D-01 Y=-1.913389784152D+02 DE=-2.53D-05 F=  9.24D-04
     Accept linear search using points  1 and  2.
     An  expanding polynomial of degree  2 produced  0.4093
 Iteration   7 EE= -191.339157089052     Delta-E=       -0.000203942287 Grad=9.002D-03 Max rot=    0.1430 deg.
 QCNR:  CnvC1=3.07D-09 CnvC2=3.07D-08
 LinEq1:  Iter=  0 NonCon=     1 RMS=9.71D-04 Max=2.15D-02 NDo=     1
 AX will form     1 AO Fock derivatives at one time.
 LinEq1:  Iter=  1 NonCon=     1 RMS=4.52D-04 Max=7.19D-03 NDo=     1
 LinEq1:  Iter=  2 NonCon=     1 RMS=2.86D-04 Max=3.84D-03 NDo=     1
 LinEq1:  Iter=  3 NonCon=     1 RMS=2.40D-04 Max=3.71D-03 NDo=     1
 LinEq1:  Iter=  4 NonCon=     1 RMS=9.29D-05 Max=1.65D-03 NDo=     1
 LinEq1:  Iter=  5 NonCon=     1 RMS=2.38D-05 Max=3.25D-04 NDo=     1
 LinEq1:  Iter=  6 NonCon=     1 RMS=7.27D-06 Max=7.22D-05 NDo=     1
 LinEq1:  Iter=  7 NonCon=     1 RMS=4.37D-06 Max=3.48D-05 NDo=     1
 LinEq1:  Iter=  8 NonCon=     1 RMS=1.72D-06 Max=1.72D-05 NDo=     1
 LinEq1:  Iter=  9 NonCon=     1 RMS=5.39D-07 Max=5.90D-06 NDo=     1
 LinEq1:  Iter= 10 NonCon=     1 RMS=2.34D-07 Max=1.61D-06 NDo=     1
 LinEq1:  Iter= 11 NonCon=     1 RMS=9.65D-08 Max=7.81D-07 NDo=     1
 LinEq1:  Iter= 12 NonCon=     1 RMS=2.11D-08 Max=1.52D-07 NDo=     1
 LinEq1:  Iter= 13 NonCon=     1 RMS=4.39D-09 Max=2.82D-08 NDo=     1
 LinEq1:  Iter= 14 NonCon=     0 RMS=9.45D-10 Max=6.51D-09 NDo=     1
 Linear equations converged to 3.074D-09 3.074D-08 after    14 iterations.
 Angle between quadratic step and gradient=  29.34 degrees.
     ILin= 1 X=0.000D+00 Y=-1.913391570891D+02 DE= 0.00D+00 F= -7.99D-04
     ILin= 2 X=1.000D+00 Y=-1.913395528133D+02 DE=-3.96D-04 F=  1.06D-05
     Accept linear search using points  1 and  2.
     An  expanding polynomial of degree  2 produced  0.9871
     Minimum is close to point  2 DX= -1.29D-02 DF= -6.83D-08 DXR=  1.31D-02 DFR=  1.73D-04 which will be used.
 Iteration   8 EE= -191.339552813261     Delta-E=       -0.000395724208 Grad=3.409D-04 Max rot=    0.0085 deg.
 QCNR:  CnvC1=3.07D-09 CnvC2=3.07D-08
 LinEq1:  Iter=  0 NonCon=     1 RMS=2.44D-05 Max=4.22D-04 NDo=     1
 LinEq1:  Iter=  1 NonCon=     1 RMS=2.84D-05 Max=3.91D-04 NDo=     1
 LinEq1:  Iter=  2 NonCon=     1 RMS=7.34D-06 Max=8.49D-05 NDo=     1
 LinEq1:  Iter=  3 NonCon=     1 RMS=8.24D-06 Max=1.25D-04 NDo=     1
 LinEq1:  Iter=  4 NonCon=     1 RMS=2.87D-06 Max=3.97D-05 NDo=     1
 LinEq1:  Iter=  5 NonCon=     1 RMS=8.43D-07 Max=7.61D-06 NDo=     1
 LinEq1:  Iter=  6 NonCon=     1 RMS=4.32D-07 Max=4.15D-06 NDo=     1
 LinEq1:  Iter=  7 NonCon=     1 RMS=1.60D-07 Max=1.71D-06 NDo=     1
 LinEq1:  Iter=  8 NonCon=     1 RMS=4.94D-08 Max=3.68D-07 NDo=     1
 LinEq1:  Iter=  9 NonCon=     1 RMS=2.55D-08 Max=2.08D-07 NDo=     1
 LinEq1:  Iter= 10 NonCon=     1 RMS=6.23D-09 Max=7.95D-08 NDo=     1
 LinEq1:  Iter= 11 NonCon=     1 RMS=1.65D-09 Max=3.23D-08 NDo=     1
 LinEq1:  Iter= 12 NonCon=     0 RMS=5.49D-10 Max=8.03D-09 NDo=     1
 Linear equations converged to 3.074D-09 3.074D-08 after    12 iterations.
 Angle between quadratic step and gradient=  38.69 degrees.
     ILin= 1 X=0.000D+00 Y=-1.913395528133D+02 DE= 0.00D+00 F= -5.50D-07
     ILin= 2 X=1.000D+00 Y=-1.913395530882D+02 DE=-2.75D-07 F= -2.64D-10
     Reject lnstep minimum 1.000D+00 FVal=-1.913395530882D+02 Lims=  0.00D+00  1.00D+00
     ILin= 3 X=2.000D+00 Y=-1.913395528140D+02 DE=-7.06D-10 F=  5.49D-07
     An  expanding polynomial of degree  3 produced  1.0006
     Minimum is close to point  2 DX=  6.43D-04 DF= -8.53D-14 DXR=  6.42D-04 DFR=  3.10D-07 which will be used.
 Iteration   9 EE= -191.339553088216     Delta-E=       -0.000000274955 Grad=1.916D-07 Max rot=    0.0000 deg.
 Rotation gradient small -- convergence achieved.
 SCF Done:  E(UB3LYP) =  -191.339553088     a.u. after    9 cycles
            Convg  =    0.1916D-06                    47 Fock formations.
              S**2 =  0.7728                  -V/T =  2.0089
 <Sx>= 0.0000 <Sy>= 0.0000 <Sz>= 0.5000 <S**2>= 0.7728 S= 0.5113
 <L.S>= 0.000000000000E+00
 Annihilation of the first spin contaminant:
 S**2 before annihilation     0.7728,   after     0.7502
 Leave Link  508 at Tue Jan  5 15:17:10 2021, MaxMem=    33554432 cpu:        30.7
 (Enter /apps/applications/gaussian/G09.D01/2/default/g09/l801.exe)
 DoSCS=F DFT=T ScalE2(SS,OS)=  1.000000  1.000000
 Range of M.O.s used for correlation:     1    46
 NBasis=    46 NAE=    16 NBE=    15 NFC=     0 NFV=     0
 NROrb=     46 NOA=    16 NOB=    15 NVA=    30 NVB=    31
 Leave Link  801 at Tue Jan  5 15:17:10 2021, MaxMem=    33554432 cpu:         0.1
 (Enter /apps/applications/gaussian/G09.D01/2/default/g09/l1101.exe)
 Using compressed storage, NAtomX=     9.
 Will process     10 centers per pass.
 Leave Link 1101 at Tue Jan  5 15:17:10 2021, MaxMem=    33554432 cpu:         0.1
 (Enter /apps/applications/gaussian/G09.D01/2/default/g09/l1102.exe)
 Symmetrizing basis deriv contribution to polar:
 IMax=3 JMax=2 DiffMx= 0.00D+00
 Leave Link 1102 at Tue Jan  5 15:17:10 2021, MaxMem=    33554432 cpu:         0.0
 (Enter /apps/applications/gaussian/G09.D01/2/default/g09/l1110.exe)
 Forming Gx(P) for the SCF density, NAtomX=     9.
 Integral derivatives from FoFJK, PRISM(SPDF).
 Do as many integral derivatives as possible in FoFJK.
 G2DrvN: MDV=      33554256.
 G2DrvN: will do    10 centers at a time, making    1 passes.
 Calling FoFCou, ICntrl=  3107 FMM=F I1Cent=   0 AccDes= 0.00D+00.
 FoFJK:  IHMeth= 1 ICntrl=    3107 DoSepK=F KAlg= 0 I1Cent=   0 FoldK=F
 IRaf=         0 NMat=   1 IRICut=       1 DoRegI=T DoRafI=F ISym2E= 0.
 FoFCou: FMM=F IPFlag=           0 FMFlag=      100000 FMFlg1=           0
         NFxFlg=           0 DoJE=F BraDBF=F KetDBF=F FulRan=T
         wScrn=  0.000000 ICntrl=    3107 IOpCl=  1 I1Cent=           0 NGrid=           0
         NMat0=    1 NMatS0=      1 NMatT0=    0 NMatD0=    1 NMtDS0=    0 NMtDT0=    0
 Symmetry not used in FoFCou.
 End of G2Drv F.D. properties file   721 does not exist.
 End of G2Drv F.D. properties file   722 does not exist.
 End of G2Drv F.D. properties file   788 does not exist.
 Leave Link 1110 at Tue Jan  5 15:17:20 2021, MaxMem=    33554432 cpu:         9.9
 (Enter /apps/applications/gaussian/G09.D01/2/default/g09/l1002.exe)
 Minotr:  UHF open shell wavefunction.
          IDoAtm=111111111
          Direct CPHF calculation.
          Differentiating once with respect to electric field.
                with respect to dipole field.
          Differentiating once with respect to nuclear coordinates.
          Requested convergence is 1.0D-08 RMS, and 1.0D-07 maximum.
          Secondary convergence is 1.0D-12 RMS, and 1.0D-12 maximum.
          NewPWx=T KeepS1=F KeepF1=F KeepIn=T MapXYZ=F SortEE=F KeepMc=T.
          MDV=      33554246 using IRadAn=       2.
 Generate precomputed XC quadrature information.
 Keep R1 and R2 ints in memory in canonical form, NReq=2035813.
 FoFCou: FMM=F IPFlag=           0 FMFlag=           0 FMFlg1=           0
         NFxFlg=           0 DoJE=F BraDBF=F KetDBF=F FulRan=T
         wScrn=  0.000000 ICntrl=     600 IOpCl=  0 I1Cent=           0 NGrid=           0
         NMat0=    1 NMatS0=   1081 NMatT0=    0 NMatD0=    1 NMtDS0=    0 NMtDT0=    0
 Symmetry not used in FoFCou.
          Solving linear equations simultaneously, MaxMat=       0.
          There are    30 degrees of freedom in the 1st order CPHF.  IDoFFX=6 NUNeed=     3.
     27 vectors produced by pass  0 Test12= 3.15D-15 3.33D-09 XBig12= 1.57D+02 7.36D+00.
 AX will form    27 AO Fock derivatives at one time.
     27 vectors produced by pass  1 Test12= 3.15D-15 3.33D-09 XBig12= 4.57D+01 1.58D+00.
     27 vectors produced by pass  2 Test12= 3.15D-15 3.33D-09 XBig12= 5.21D-01 1.61D-01.
     27 vectors produced by pass  3 Test12= 3.15D-15 3.33D-09 XBig12= 4.29D-03 1.63D-02.
     27 vectors produced by pass  4 Test12= 3.15D-15 3.33D-09 XBig12= 1.36D-05 6.56D-04.
     26 vectors produced by pass  5 Test12= 3.15D-15 3.33D-09 XBig12= 2.58D-08 2.14D-05.
      7 vectors produced by pass  6 Test12= 3.15D-15 3.33D-09 XBig12= 4.06D-11 1.17D-06.
      2 vectors produced by pass  7 Test12= 3.15D-15 3.33D-09 XBig12= 7.86D-14 4.01D-08.
 InvSVY:  IOpt=1 It=  1 EMax= 4.44D-15
 Solved reduced A of dimension   170 with    30 vectors.
 FullF1:  Do perturbations    1 to     3.
 Isotropic polarizability for W=    0.000000       34.75 Bohr**3.
 End of Minotr F.D. properties file   721 does not exist.
 End of Minotr F.D. properties file   722 does not exist.
 End of Minotr F.D. properties file   788 does not exist.
 Leave Link 1002 at Tue Jan  5 15:17:30 2021, MaxMem=    33554432 cpu:         9.0
 (Enter /apps/applications/gaussian/G09.D01/2/default/g09/l701.exe)
 Compute integral second derivatives.
 ... and contract with generalized density number  0.
 Leave Link  701 at Tue Jan  5 15:17:30 2021, MaxMem=    33554432 cpu:         0.1
 (Enter /apps/applications/gaussian/G09.D01/2/default/g09/l702.exe)
 L702 exits ... SP integral derivatives will be done elsewhere.
 Leave Link  702 at Tue Jan  5 15:17:30 2021, MaxMem=    33554432 cpu:         0.0
 (Enter /apps/applications/gaussian/G09.D01/2/default/g09/l703.exe)
 Compute integral second derivatives, UseDBF=F ICtDFT=           0.
 Integral derivatives from FoFJK, PRISM(SPDF).
 Calling FoFJK, ICntrl=    100127 FMM=F ISym2X=0 I1Cent= 0 IOpClX= 1 NMat=1 NMatS=1 NMatT=0.
 FoFJK:  IHMeth= 1 ICntrl=  100127 DoSepK=F KAlg= 0 I1Cent=   0 FoldK=F
 IRaf=         0 NMat=   1 IRICut=       1 DoRegI=T DoRafI=F ISym2E= 0.
 FoFCou: FMM=F IPFlag=           0 FMFlag=      100000 FMFlg1=         800
         NFxFlg=           0 DoJE=F BraDBF=F KetDBF=F FulRan=T
         wScrn=  0.000000 ICntrl=  100127 IOpCl=  1 I1Cent=           0 NGrid=           0
         NMat0=    1 NMatS0=      1 NMatT0=    0 NMatD0=    1 NMtDS0=    0 NMtDT0=    0
 Symmetry not used in FoFCou.
 Leave Link  703 at Tue Jan  5 15:17:38 2021, MaxMem=    33554432 cpu:         8.5
 (Enter /apps/applications/gaussian/G09.D01/2/default/g09/l716.exe)
 Dipole        =-1.03222199D+00-1.84087140D-01-1.47850945D-01
 Polarizability= 5.51377673D+01 1.88093114D-01 3.26896440D+01
                 2.22342070D-01 8.41437352D-01 1.64220815D+01
 ***** Axes restored to original set *****
 -------------------------------------------------------------------
 Center     Atomic                   Forces (Hartrees/Bohr)
 Number     Number              X              Y              Z
 -------------------------------------------------------------------
      1        6          -0.014905418   -0.003898412   -0.010771129
      2        6           0.023029067    0.005961445    0.000633925
      3        1           0.000777633    0.002517885   -0.000626566
      4        1          -0.001866856   -0.000401151    0.001981809
      5        1           0.002434064   -0.002097861   -0.000328145
      6        6          -0.029747144   -0.006265467    0.036640257
      7        1           0.008048409    0.002020586   -0.006084235
      8        8           0.021317022    0.006641829   -0.018551913
      9        1          -0.009086777   -0.004478855   -0.002894004
 -------------------------------------------------------------------
 Cartesian Forces:  Max     0.036640257 RMS     0.012577539
 Force constants in Cartesian coordinates: 
                1             2             3             4             5 
      1  0.522789D+00
      2  0.380465D-02  0.514257D+00
      3  0.104818D-01  0.175863D-02  0.491417D+00
      4 -0.234513D+00 -0.421622D-01 -0.971980D-01  0.854332D+00
      5 -0.428551D-01 -0.708227D-01 -0.225320D-01  0.196282D+00  0.133351D+00
      6 -0.108336D+00 -0.247778D-01 -0.910616D-01  0.495377D+00  0.124721D+00
      7 -0.741682D-01 -0.729992D-01  0.205092D-01 -0.204171D-01 -0.307344D-01
      8 -0.705813D-01 -0.247828D+00  0.569488D-01 -0.840377D-02 -0.444597D-02
      9  0.197808D-01  0.558327D-01 -0.609670D-01 -0.907415D-02 -0.204888D-01
     10 -0.500900D-01 -0.812865D-03  0.326576D-01 -0.479803D-02 -0.111273D-02
     11 -0.740509D-03 -0.451298D-01  0.419607D-02 -0.750435D-03 -0.162656D-02
     12  0.388196D-01  0.556473D-02 -0.275620D+00 -0.141293D-01 -0.347621D-02
     13 -0.163806D+00  0.114905D+00  0.396127D-01 -0.324995D-01  0.166173D-01
     14  0.112192D+00 -0.160032D+00 -0.385937D-01 -0.561610D-02  0.836671D-02
     15  0.383930D-01 -0.378419D-01 -0.580833D-01 -0.170771D-01  0.140411D-01
     16  0.000000D+00 -0.156678D-02 -0.321665D-02 -0.589494D+00 -0.144254D+00
     17 -0.876911D-03  0.415272D-02 -0.982627D-03 -0.140767D+00 -0.727339D-01
     18 -0.432595D-02 -0.135393D-02 -0.106974D-01 -0.278889D+00 -0.696794D-01
     19  0.459367D-03 -0.103911D-02 -0.431414D-04  0.598358D-02  0.162699D-02
     20 -0.876952D-03  0.443283D-02 -0.540796D-04  0.166357D-03  0.933189D-03
     21 -0.498512D-03 -0.204357D-03  0.374169D-02 -0.250263D-01 -0.608614D-02
     22 -0.475525D-03 -0.397024D-04 -0.182413D-02  0.184117D-01  0.348201D-02
     23 -0.568355D-04  0.109882D-02 -0.368151D-03  0.271263D-03  0.599782D-02
     24  0.587251D-02  0.131470D-02  0.109688D-02 -0.509666D-01 -0.158061D-01
     25 -0.196798D-03 -0.901475D-04 -0.979437D-03  0.299439D-02  0.948137D-03
     26 -0.940844D-05 -0.129185D-03 -0.373029D-03  0.980688D-03  0.980335D-03
     27 -0.186872D-03 -0.292742D-03  0.173087D-03 -0.301620D-02 -0.693647D-03
                6             7             8             9            10 
      6  0.371142D+00
      7  0.149976D-02  0.864816D-01
      8 -0.479212D-02  0.849409D-01  0.274496D+00
      9  0.126316D-02 -0.179247D-01 -0.609684D-01  0.681874D-01
     10 -0.359400D-01 -0.218634D-02  0.536896D-03  0.115592D-01  0.616734D-01
     11 -0.856602D-02 -0.441361D-02 -0.143296D-02  0.325637D-01  0.274812D-02
     12 -0.186967D-01  0.249856D-02  0.657033D-03 -0.961298D-02 -0.321963D-01
     13 -0.166632D-02  0.912614D-02 -0.755705D-02 -0.309964D-02 -0.368702D-02
     14  0.458020D-02  0.219336D-01 -0.210083D-01 -0.807841D-02 -0.891233D-03
     15  0.490424D-03 -0.685896D-02  0.652505D-02  0.793364D-03  0.246458D-01
     16 -0.370102D+00  0.137462D-02  0.866418D-03 -0.153077D-02 -0.647087D-03
     17 -0.911744D-01  0.561015D-03  0.247415D-04  0.432261D-03 -0.190630D-03
     18 -0.166350D+00  0.172792D-02  0.272053D-02  0.109940D-02  0.131964D-02
     19  0.829196D-02 -0.309538D-03 -0.893652D-04 -0.145978D-03 -0.329111D-04
     20  0.131585D-02  0.949610D-03  0.496183D-03  0.850070D-03 -0.146474D-03
     21 -0.129861D-01 -0.450318D-03 -0.223062D-03 -0.302777D-03  0.269631D-03
     22  0.801420D-02 -0.488957D-05  0.288178D-03  0.396801D-03 -0.116505D-03
     23 -0.349294D-02  0.258705D-04 -0.254921D-03 -0.389468D-04 -0.136581D-03
     24 -0.801481D-01 -0.890229D-03 -0.709557D-03 -0.151284D-03 -0.246551D-02
     25  0.286208D-02  0.103751D-03  0.000000D+00  0.384524D-04 -0.115510D-03
     26  0.218602D-02 -0.263694D-03 -0.471580D-04 -0.104133D-03  0.549939D-05
     27 -0.365317D-02 -0.111224D-03 -0.158349D-03 -0.309338D-03  0.149934D-03
               11            12            13            14            15 
     11  0.482911D-01
     12 -0.360247D-02  0.312436D+00
     13  0.360560D-02  0.247939D-02  0.188891D+00
     14 -0.643011D-03  0.283865D-03 -0.127283D+00  0.174012D+00
     15 -0.244479D-01 -0.882827D-02 -0.386216D-01  0.430564D-01  0.650744D-01
[...]
 Vibrational             43.327             13.446             16.885
 Vibration     1          0.593              1.986              7.235
 Vibration     2          0.615              1.914              2.813
 Vibration     3          0.624              1.884              2.479
 Vibration     4          0.726              1.579              1.174
 Vibration     5          0.731              1.564              1.142
 Vibration     6          0.748              1.518              1.050
 Vibration     7          0.941              1.065              0.477
                       Q            Log10(Q)             Ln(Q)
 Total Bot       0.195650D-15        -15.708519        -36.170202
 Total V=0       0.246295D+15         14.391456         33.137551
 Vib (Bot)       0.852771D-28        -28.069167        -64.631646
 Vib (Bot)    1  0.140169D+02          1.146654          2.640267
 Vib (Bot)    2  0.145985D+01          0.164309          0.378335
 Vib (Bot)    3  0.121489D+01          0.084538          0.194657
 Vib (Bot)    4  0.530371D+00         -0.275420         -0.634178
 Vib (Bot)    5  0.517351D+00         -0.286214         -0.659033
 Vib (Bot)    6  0.480008D+00         -0.318752         -0.733953
 Vib (Bot)    7  0.259501D+00         -0.585860         -1.348993
 Vib (V=0)       0.107351D+03          2.030808          4.676107
 Vib (V=0)    1  0.145259D+02          1.162142          2.675931
 Vib (V=0)    2  0.204310D+01          0.310290          0.714470
 Vib (V=0)    3  0.181376D+01          0.258580          0.595402
 Vib (V=0)    4  0.122890D+01          0.089516          0.206119
 Vib (V=0)    5  0.121948D+01          0.086175          0.198425
 Vib (V=0)    6  0.119311D+01          0.076682          0.176567
 Vib (V=0)    7  0.106333D+01          0.026668          0.061406
 Electronic      0.200000D+01          0.301030          0.693147
 Translational   0.169300D+08          7.228656         16.644596
 Rotational      0.677582D+05          4.830962         11.123700
 
                                                    Gaussian input prepared by AS
 E
                                                             IR Spectrum
 
     3      3      33 3                            2                       11  1           11                                        
     4      3      11 0                            2                       55  4           11      9    7      5      333     11     
     8      0      00 4                            2                       44  7           00      2    7      8      754     63    1
     9      7      10 4                            6                       98  2           60      4    2      5      758     69    5
 
     X      X      XX X                            X                       XX  X           XX      X    X      X      XXX     XX    X
     X                                             X                                                    X      X      XXX      X     
     X                                             X                                                    X      X      XXX      X     
     X                                                                                                  X      X      XXX      X     
     X                                                                                                  X      X      XXX      X     
     X                                                                                                  X      X      X        X     
     X                                                                                                  X      X               X     
     X                                                                                                         X               X     
     X                                                                                                         X               X     
     X                                                                                                         X               X     
     X                                                                                                         X               X     
                                                                                                               X                     
                                                                                                               X                     
                                                                                                               X                     
                                                                                                               X                     
                                                                                                               X                     
                                                                                                               X                     
                                                                                                               X                     
                                                                                                               X                     
                                                                                                               X                     
 
 ***** Axes restored to original set *****
 -------------------------------------------------------------------
 Center     Atomic                   Forces (Hartrees/Bohr)
 Number     Number              X              Y              Z
 -------------------------------------------------------------------
      1        6          -0.000002829   -0.000000413    0.000000142
      2        6          -0.000000169   -0.000001816   -0.000000055
      3        1          -0.000000015    0.000004054   -0.000001806
      4        1          -0.000001920    0.000001310    0.000004333
      5        1           0.000001623   -0.000002606    0.000000155
      6        6          -0.000000009   -0.000003568   -0.000000412
      7        1           0.000000545   -0.000002000   -0.000000489
      8        8           0.000002488    0.000002732   -0.000002361
      9        1           0.000000286    0.000002308    0.000000492
 -------------------------------------------------------------------
 Cartesian Forces:  Max     0.000004333 RMS     0.000001992
 Force constants in Cartesian coordinates: 
                1             2             3             4             5 
      1  0.503930D+00
      2 -0.533489D-02  0.539290D+00
      3 -0.224358D-01 -0.386404D-02  0.522146D+00
      4 -0.200316D+00 -0.258193D-01 -0.848304D-01  0.104195D+01
      5 -0.253233D-01 -0.733897D-01 -0.158936D-01  0.181882D+00  0.133373D+00
      6 -0.840946D-01 -0.160039D-01 -0.120168D+00  0.579328D+00  0.110852D+00
      7 -0.706276D-01 -0.742932D-01  0.872280D-02 -0.182312D-01 -0.314060D-01
      8 -0.737055D-01 -0.278248D+00  0.278802D-01 -0.515635D-02 -0.178637D-02
      9  0.855810D-02  0.273800D-01 -0.498074D-01 -0.934834D-02 -0.222724D-01
     10 -0.546560D-01 -0.825136D-02  0.445425D-01  0.000000D+00  0.558684D-02
     11 -0.854200D-02 -0.540307D-01  0.435985D-01  0.174807D-02 -0.104099D-02
     12  0.457106D-01  0.439285D-01 -0.288606D+00 -0.578695D-02  0.884656D-03
     13 -0.180452D+00  0.115268D+00  0.588968D-01 -0.311758D-01  0.160637D-01
     14  0.114523D+00 -0.145520D+00 -0.508481D-01 -0.560185D-02  0.526421D-02
     15  0.583122D-01 -0.503603D-01 -0.718656D-01 -0.191520D-01  0.150099D-01
     16  0.283961D-04 -0.942805D-03 -0.249038D-02 -0.799145D+00 -0.147489D+00
     17 -0.113558D-02  0.648295D-02 -0.696279D-03 -0.146057D+00 -0.664365D-01
     18 -0.410205D-02 -0.345382D-03  0.388209D-02 -0.459211D+00 -0.877620D-01
     19  0.205504D-02 -0.736346D-03 -0.219786D-02  0.639466D-02  0.573506D-03
     20 -0.543027D-03  0.527672D-02 -0.468084D-03  0.198710D-03  0.476012D-02
     21 -0.246849D-02 -0.307544D-03  0.364975D-02  0.656804D-02  0.896149D-03
     22 -0.775092D-04  0.129297D-03  0.250261D-04 -0.329020D-03 -0.543579D-04
     23  0.270437D-04 -0.244201D-04  0.363075D-03 -0.198481D-02 -0.835142D-03
     24  0.794603D-03 -0.356769D-03  0.107545D-02 -0.793814D-02 -0.191439D-02
     25  0.115756D-03 -0.191084D-04 -0.232619D-03  0.849539D-03  0.166834D-03
     26  0.341812D-04  0.161906D-03 -0.716973D-04  0.790682D-03  0.916318D-04
     27 -0.274500D-03 -0.705941D-04 -0.306212D-03  0.370666D-03  0.199220D-03
                6             7             8             9            10 
      6  0.448862D+00
      7 -0.130943D-03  0.825250D-01
      8 -0.395395D-02  0.849650D-01  0.305978D+00
      9 -0.143481D-02 -0.500328D-02 -0.290179D-01  0.544708D-01
     10 -0.372246D-01 -0.283045D-02 -0.639963D-03  0.105447D-01  0.639165D-01
     11 -0.739250D-02 -0.570846D-02 -0.570038D-02  0.334645D-01  0.101453D-01
     12 -0.212813D-01  0.131249D-02  0.703382D-03 -0.299853D-02 -0.444964D-01
     13  0.375354D-02  0.901750D-02 -0.654931D-02 -0.366968D-02 -0.451140D-02
     14  0.550993D-02  0.246447D-01 -0.204441D-01 -0.111477D-01 -0.583035D-02
     15  0.439333D-02 -0.349672D-02  0.326343D-02 -0.349479D-04  0.251171D-01
     16 -0.463981D+00  0.178450D-03  0.112168D-02 -0.102344D-02 -0.127647D-02
     17 -0.881650D-01  0.823720D-03  0.162636D-03  0.996033D-03 -0.728811D-03
     18 -0.310007D+00 -0.119992D-02  0.111805D-02 -0.398666D-04  0.430371D-03
     19  0.246937D-02 -0.386998D-04 -0.992425D-05 -0.431455D-04 -0.549863D-03
     20  0.143285D-03  0.979237D-03  0.875425D-04  0.725057D-03 -0.294218D-03
     21  0.462610D-02 -0.253871D-03  0.127689D-04 -0.622239D-04  0.893437D-03
     22  0.337756D-04  0.455056D-04  0.118287D-04  0.179948D-04  0.790587D-04
     23 -0.103768D-02  0.564670D-04 -0.381242D-04 -0.117471D-03  0.725162D-04
     24 -0.512734D-02  0.274289D-04 -0.525475D-04 -0.124192D-03  0.954458D-04
     25 -0.153589D-03 -0.384969D-04 -0.374931D-04 -0.328799D-04 -0.170506D-03
     26  0.474688D-04 -0.614056D-04 -0.120866D-04 -0.101447D-04 -0.599466D-04
     27  0.136169D-03  0.220167D-04  0.464804D-04  0.311719D-04  0.975355D-04
               11            12            13            14            15 
     11  0.567751D-01
     12 -0.476484D-01  0.321548D+00
     13  0.340569D-02  0.247026D-02  0.205844D+00
     14  0.323121D-02  0.200760D-02 -0.127118D+00  0.157773D+00
     15 -0.223014D-01 -0.103456D-01 -0.604064D-01  0.562165D-01  0.788828D-01
     16 -0.921204D-03  0.110961D-02  0.863307D-03 -0.774466D-03 -0.647653D-03
     17  0.807626D-03  0.335479D-03 -0.382976D-03 -0.134303D-03 -0.128760D-02
     18 -0.559781D-04  0.131187D-02 -0.736109D-03 -0.176645D-02 -0.797890D-03
     19 -0.895556D-04 -0.266313D-03  0.408425D-03  0.149828D-03  0.270079D-03
     20  0.865262D-05 -0.105955D-03 -0.735195D-03 -0.178845D-03 -0.542031D-03
     21  0.152193D-03  0.410816D-03 -0.438473D-03 -0.221977D-03 -0.233519D-03
     22 -0.240444D-04  0.000000D+00  0.127220D-03 -0.217379D-04  0.111723D-03
     23  0.741875D-05 -0.395177D-04 -0.155218D-04  0.648789D-04 -0.125641D-03
     24  0.152113D-03 -0.204363D-03  0.887661D-04  0.263121D-03 -0.153172D-04
     25 -0.137878D-04 -0.540239D-04 -0.120834D-03  0.291831D-04 -0.108296D-03
     26 -0.579498D-04 -0.657354D-04  0.641968D-04 -0.565567D-04  0.127061D-03
     27  0.309809D-04  0.165749D-03  0.412757D-04 -0.128626D-04  0.168045D-04
               16            17            18            19            20 
     16  0.109458D+01
     17  0.199655D+00  0.956238D-01
     18  0.642968D+00  0.120833D+00  0.438352D+00
     19 -0.295239D+00 -0.520369D-01 -0.183617D+00  0.288253D+00
     20 -0.514048D-01 -0.375886D-01 -0.339055D-01  0.516100D-01  0.284073D-01
     21 -0.182844D+00 -0.341429D-01 -0.131804D+00  0.180012D+00  0.349025D-01
     22  0.102011D-02 -0.919601D-03  0.466132D-02 -0.167379D-02  0.153887D-02
     23  0.959209D-03  0.133465D-02  0.434696D-02  0.102980D-02 -0.821684D-03
     24  0.647787D-02  0.160382D-02  0.318033D-02  0.271859D-02 -0.998697D-03
     25 -0.100961D-02  0.781586D-03  0.806348D-03  0.390244D-03 -0.134961D-02
     26 -0.204121D-03 -0.252255D-03 -0.246304D-02 -0.490434D-03  0.487923D-04
     27  0.431305D-03  0.523234D-03 -0.407835D-02  0.653975D-03  0.249358D-03
               21            22            23            24            25 
     21  0.127576D+00
     22 -0.356058D-03  0.158146D+00
     23 -0.172993D-02  0.191059D+00  0.236049D+00
     24 -0.494223D-02  0.114751D-02  0.564986D-02  0.807018D-02
     25 -0.111261D-02 -0.157337D+00 -0.191204D+00 -0.341208D-02  0.157321D+00
     26  0.438737D-03 -0.191719D+00 -0.235736D+00 -0.434651D-02  0.191646D+00
     27  0.779100D-03 -0.564202D-02 -0.730967D-02 -0.191251D-02  0.429975D-02
               26            27 
     26  0.235813D+00
     27  0.634385D-02  0.516808D-02
 Leave Link  716 at Tue Jan  5 15:33:46 2021, MaxMem=    33554432 cpu:         0.1
 (Enter /apps/applications/gaussian/G09.D01/2/default/g09/l9999.exe)
 1\1\GINC-DC1S0B3B\Freq\UB3LYP\3-21G\C3H5O1(2)\CHMRSH\05-Jan-2021\0\\#P
  b3lyp/3-21G scf=qc opt(calcall, ts, noeigentest, cartesian,maxcycle=1
 00)\\Gaussian input prepared by ASE\\0,2\C,-7.1559734297,0.5994093918,
 0.453443778\C,-5.9355379088,0.8276472623,1.2260093363\H,-7.5049664561,
 -0.4343120405,0.5635952827\H,-6.9776266752,0.786305228,-0.6125241325\H
 ,-7.9584313144,1.2695871351,0.784769364\C,-4.9129124725,1.0257877323,1
 .8398478364\H,-4.0399107111,1.1949538159,2.4198634958\O,-5.1014763816,
 1.4352160396,4.3068159491\H,-5.740715595,0.6488488957,4.2892773662\\Ve
 rsion=ES64L-G09RevD.01\State=2-A\HF=-191.3305519\S2=0.752839\S2-1=0.\S
 2A=0.750005\RMSD=0.000e+00\RMSF=1.992e-06\ZeroPoint=0.0654394\Thermal=
 0.0718793\Dipole=-0.6800707,-0.5904056,-0.298155\DipoleDeriv=0.0708536
 ,0.0047282,-0.0043962,0.019193,0.0699832,0.0373709,-0.0136494,-0.00725
 67,0.0158627,0.1081659,0.0693661,0.3848705,0.0268476,-0.0956119,0.0550
 376,0.1557173,0.0459795,0.1415052,0.0319575,-0.0646302,-0.0456161,-0.0
 715296,-0.0626057,0.0052473,-0.026582,0.0195261,0.0826877,0.046617,-0.
 0202074,-0.0205547,-0.0211092,0.1075494,0.009924,-0.0091098,0.0230641,
 -0.0838582,-0.0467096,0.0691215,-0.0165329,0.0683886,0.0385504,-0.0574
 962,0.0102523,-0.044373,0.0675846,-0.4041151,-0.0554714,-0.2548504,-0.
 0160516,-0.2492994,-0.0963419,-0.1085116,-0.0554288,-0.741402,0.253180
 9,0.0026032,-0.0740111,0.00605,0.2181941,0.0041465,-0.0285751,0.001170
 2,0.3092308,-0.2132942,0.2091504,0.06032,0.1939345,-0.1077138,0.072920
 7,-0.001593,0.0141326,-0.1512505,0.1533441,-0.2146604,-0.0292291,-0.20
 57233,0.0809536,-0.0308089,0.0220511,0.0031862,0.3596396\Polar=37.2525
 577,6.1026846,19.7646525,14.0600173,4.0875897,43.4847014\PG=C01 [X(C3H
 5O1)]\NImag=1\\0.50393012,-0.00533489,0.53929034,-0.02243585,-0.003864
 04,0.52214611,-0.20031614,-0.02581931,-0.08483043,1.04195420,-0.025323
 27,-0.07338969,-0.01589359,0.18188170,0.13337277,-0.08409465,-0.016003
 92,-0.12016788,0.57932849,0.11085240,0.44886246,-0.07062759,-0.0742932
 5,0.00872280,-0.01823124,-0.03140602,-0.00013094,0.08252502,-0.0737054
 7,-0.27824755,0.02788025,-0.00515635,-0.00178637,-0.00395395,0.0849650
 0,0.30597840,0.00855810,0.02737997,-0.04980740,-0.00934834,-0.02227238
 ,-0.00143481,-0.00500328,-0.02901786,0.05447080,-0.05465602,-0.0082513
 6,0.04454248,-0.00000084,0.00558684,-0.03722457,-0.00283045,-0.0006399
 6,0.01054467,0.06391649,-0.00854200,-0.05403072,0.04359850,0.00174807,
 -0.00104099,-0.00739250,-0.00570846,-0.00570038,0.03346451,0.01014529,
 0.05677513,0.04571064,0.04392854,-0.28860627,-0.00578695,0.00088466,-0
 .02128133,0.00131249,0.00070338,-0.00299853,-0.04449644,-0.04764845,0.
 32154771,-0.18045205,0.11526777,0.05889683,-0.03117575,0.01606367,0.00
 375354,0.00901750,-0.00654931,-0.00366968,-0.00451140,0.00340569,0.002
 47026,0.20584358,0.11452300,-0.14551955,-0.05084813,-0.00560185,0.0052
 6421,0.00550993,0.02464471,-0.02044407,-0.01114772,-0.00583035,0.00323
 121,0.00200760,-0.12711833,0.15777302,0.05831219,-0.05036027,-0.071865
 64,-0.01915200,0.01500993,0.00439333,-0.00349672,0.00326343,-0.0000349
 5,0.02511707,-0.02230137,-0.01034564,-0.06040640,0.05621649,0.07888283
 ,0.00002840,-0.00094281,-0.00249038,-0.79914541,-0.14748890,-0.4639814
 2,0.00017845,0.00112168,-0.00102344,-0.00127647,-0.00092120,0.00110961
 ,0.00086331,-0.00077447,-0.00064765,1.09458002,-0.00113558,0.00648295,
 -0.00069628,-0.14605684,-0.06643654,-0.08816504,0.00082372,0.00016264,
 0.00099603,-0.00072881,0.00080763,0.00033548,-0.00038298,-0.00013430,-
 0.00128760,0.19965540,0.09562381,-0.00410205,-0.00034538,0.00388209,-0
 .45921135,-0.08776199,-0.31000670,-0.00119992,0.00111805,-0.00003987,0
 .00043037,-0.00005598,0.00131187,-0.00073611,-0.00176645,-0.00079789,0
 .64296792,0.12083330,0.43835203,0.00205504,-0.00073635,-0.00219786,0.0
 0639466,0.00057351,0.00246937,-0.00003870,-0.00000992,-0.00004315,-0.0
 0054986,-0.00008956,-0.00026631,0.00040842,0.00014983,0.00027008,-0.29
 523879,-0.05203690,-0.18361653,0.28825277,-0.00054303,0.00527672,-0.00
 046808,0.00019871,0.00476012,0.00014328,0.00097924,0.00008754,0.000725
 06,-0.00029422,0.00000865,-0.00010596,-0.00073519,-0.00017884,-0.00054
 203,-0.05140480,-0.03758857,-0.03390548,0.05161002,0.02840727,-0.00246
 849,-0.00030754,0.00364975,0.00656804,0.00089615,0.00462610,-0.0002538
 7,0.00001277,-0.00006222,0.00089344,0.00015219,0.00041082,-0.00043847,
 -0.00022198,-0.00023352,-0.18284381,-0.03414295,-0.13180350,0.18001184
 ,0.03490255,0.12757571,-0.00007751,0.00012930,0.00002503,-0.00032902,-
 0.00005436,0.00003378,0.00004551,0.00001183,0.00001799,0.00007906,-0.0
 0002404,0.00000073,0.00012722,-0.00002174,0.00011172,0.00102011,-0.000
 91960,0.00466132,-0.00167379,0.00153887,-0.00035606,0.15814553,0.00002
 704,-0.00002442,0.00036307,-0.00198481,-0.00083514,-0.00103768,0.00005
 647,-0.00003812,-0.00011747,0.00007252,0.00000742,-0.00003952,-0.00001
 552,0.00006488,-0.00012564,0.00095921,0.00133465,0.00434696,0.00102980
 ,-0.00082168,-0.00172993,0.19105886,0.23604869,0.00079460,-0.00035677,
 0.00107545,-0.00793814,-0.00191439,-0.00512734,0.00002743,-0.00005255,
 -0.00012419,0.00009545,0.00015211,-0.00020436,0.00008877,0.00026312,-0
 .00001532,0.00647787,0.00160382,0.00318033,0.00271859,-0.00099870,-0.0
 0494223,0.00114751,0.00564986,0.00807018,0.00011576,-0.00001911,-0.000
 23262,0.00084954,0.00016683,-0.00015359,-0.00003850,-0.00003749,-0.000
 03288,-0.00017051,-0.00001379,-0.00005402,-0.00012083,0.00002918,-0.00
 010830,-0.00100961,0.00078159,0.00080635,0.00039024,-0.00134961,-0.001
 11261,-0.15733711,-0.19120357,-0.00341208,0.15732101,0.00003418,0.0001
 6191,-0.00007170,0.00079068,0.00009163,0.00004747,-0.00006141,-0.00001
 209,-0.00001014,-0.00005995,-0.00005795,-0.00006574,0.00006420,-0.0000
 5656,0.00012706,-0.00020412,-0.00025226,-0.00246304,-0.00049043,0.0000
 4879,0.00043874,-0.19171911,-0.23573627,-0.00434651,0.19164596,0.23581
 279,-0.00027450,-0.00007059,-0.00030621,0.00037067,0.00019922,0.000136
 17,0.00002202,0.00004648,0.00003117,0.00009754,0.00003098,0.00016575,0
 .00004128,-0.00001286,0.00001680,0.00043131,0.00052323,-0.00407835,0.0
 0065397,0.00024936,0.00077910,-0.00564202,-0.00730967,-0.00191251,0.00
 429975,0.00634385,0.00516808\\0.00000283,0.00000041,-0.00000014,0.0000
 0017,0.00000182,0.00000006,0.00000001,-0.00000405,0.00000181,0.0000019
 2,-0.00000131,-0.00000433,-0.00000162,0.00000261,-0.00000016,0.,0.0000
 0357,0.00000041,-0.00000054,0.00000200,0.00000049,-0.00000249,-0.00000
 273,0.00000236,-0.00000029,-0.00000231,-0.00000049\\\@


 NOT WHAT WE DID SHALL BE THE TEST
 WHEN ACT AND WILL ARE DONE,
 BUT WHAT OUR LORD INFERS WE WOULD-
 HAD WE DIVINER BEEN.
           EMILY DICKINSON  POEMS NO. CLXXV
 Job cpu time:       0 days  0 hours 17 minutes 59.9 seconds.
 File lengths (MBytes):  RWF=      9 Int=      0 D2E=      0 Chk=      1 Scr=      1
 Normal termination of Gaussian 09 at Tue Jan  5 15:33:46 2021.
