22
Properties=species:S:1:pos:R:3 energy=-1888.2008261404567 pbc="F F F"
C        0.43009198       1.46417614       0.31358816
C        1.40439482       0.46099971      -0.31052576
C        1.05612801      -0.97727770       0.10062778
C       -0.42070179      -1.26784039       0.04058736
C       -1.34624477      -0.30390558      -0.06012450
C       -1.01480558       1.15754230      -0.11024505
H        0.51198446       1.42258133       1.41660050
H        0.70114510       2.49274259       0.01327214
H        1.37217561       0.55103257      -1.41333149
H        2.43951843       0.69589691      -0.00205805
H        1.60742265      -1.67714320      -0.55685736
H        1.41311349      -1.16353323       1.13424785
C       -0.79597748      -2.71594911       0.12466188
H       -2.40525375      -0.54178592      -0.12170981
H       -1.70699879       1.71909241       0.54744947
H       -1.18551025       1.52957634      -1.14183163
H       -1.88241590      -2.87246844       0.09339045
H       -0.43381356      -3.16362556       1.06017211
H       -0.36337478      -3.28444198      -0.70858915
O        4.05947196      -8.01931430       0.97272719
O        5.12553125      -7.55157225       1.06745924
O        5.45281889      -6.43081262       1.03372869
22
Properties=species:S:1:pos:R:3 energy=-1888.196120984609 pbc="F F F"
C        0.44095114       1.45285513       0.32242226
C        1.40871120       0.45678111      -0.32148649
C        1.07197748      -0.98719449       0.08295676
C       -0.40063474      -1.28683470       0.03346616
C       -1.33028586      -0.32337814      -0.04276151
C       -1.00730779       1.14158362      -0.08567155
H        0.53905841       1.40577648       1.42360443
H        0.70388198       2.48540679       0.02543895
H        1.35991682       0.55392862      -1.42289286
H        2.44796011       0.69779639      -0.03118276
H        1.62754985      -1.67905599      -0.57860206
H        1.43906169      -1.17452420       1.11289120
C       -0.78512596      -2.72957452       0.10866755
H       -2.39003086      -0.56147142      -0.09164465
H       -1.69451018       1.69456670       0.58346624
H       -1.19407795       1.52218403      -1.11041468
H       -1.86796143      -2.87324336       0.01734245
H       -0.48432618      -3.17647239       1.05304573
H       -0.32542564      -3.31354689      -0.68861757
O        3.98984291      -7.93312812       1.00740124
O        5.06439408      -7.48120092       1.08628493
O        5.40508091      -6.36728373       1.00952623
22
Properties=species:S:1:pos:R:3 energy=-1888.1836108632042 pbc="F F F"
C        0.45190563       1.44138309       0.33122804
C        1.41300041       0.45259868      -0.33238289
C        1.08791958      -0.99694871       0.06546048
C       -0.38082620      -1.30550556       0.02638713
C       -1.31416223      -0.34273854      -0.02555681
C       -0.99952613       1.12537110      -0.06090299
H        0.56616270       1.38888446       1.43036775
H        0.70654672       2.47780375       0.03762961
H        1.34743346       0.55649587      -1.43205985
H        2.45596595       0.69978217      -0.06012373
H        1.64726060      -1.68093075      -0.60043213
H        1.46524333      -1.18532076       1.09157788
C       -0.77462737      -2.74329631       0.09215558
H       -2.37417040      -0.58168380      -0.06156370
H       -1.68162648       1.66977527       0.61959479
H       -1.20232768       1.51398794      -1.07880832
H       -1.85145949      -2.87416216      -0.05728885
H       -0.53439171      -3.18823209       1.04411475
H       -0.28938743      -3.34299113      -0.66886658
O        3.92048344      -7.84641315       1.04188560
O        5.00275131      -7.40979657       1.10482499
O        5.35653199      -6.30409280       0.98599926
22
Properties=species:S:1:pos:R:3 energy=-1888.1666017309565 pbc="F F F"
C        0.46294770       1.42975986       0.34000277
C        1.41725030       0.44844500      -0.34321050
C        1.10393880      -1.00654383       0.04813610
C       -0.36126547      -1.32386390       0.01936313
C       -1.29787307      -0.36200452      -0.00849740
C       -0.99146220       1.10890194      -0.03595200
H        0.59328878       1.37190852       1.43688702
H        0.70914241       2.46993351       0.04984302
H        1.33472969       0.55873603      -1.44083316
H        2.46352930       0.70184410      -0.08887189
H        1.66654869      -1.68276725      -0.62233996
H        1.49163303      -1.19592322       1.07030258
C       -0.76445694      -2.75709003       0.07514948
H       -2.35769546      -0.60240893      -0.03148327
H       -1.66834454       1.64472296       0.65581665
H       -1.21025729       1.50500189      -1.04701826
H       -1.83297548      -2.87524377      -0.13049502
H       -0.58394455      -3.19891488       1.03339815
H       -0.25524270      -3.37270904      -0.64935644
O        3.85139825      -7.75917684       1.07616799
O        4.94063249      -7.33739459       1.12308612
O        5.30717825      -6.24124297       0.96314491
22
Properties=species:S:1:pos:R:3 energy=-1888.1476106196576 pbc="F F F"
C        0.47406961       1.41798524       0.34874372
C        1.42144872       0.44431264      -0.35396491
C        1.12001963      -1.01598330       0.03098077
C       -0.34194188      -1.34192064       0.01240700
C       -1.28141755      -0.38119388       0.00842969
C       -0.98311761       1.09217337      -0.01083122
H        0.62042812       1.35485194       1.44315883
H        0.71167213       2.46179610       0.06207806
H        1.32180965       0.56065077      -1.44921347
H        2.47064354       0.70397201      -0.11741817
H        1.68540788      -1.68456524      -0.64431796
H        1.51820541      -1.20633189       1.04906001
C       -0.75458991      -2.77093122       0.05767272
H       -2.34062913      -0.62363268      -0.00141966
H       -1.65466120       1.61941457       0.69211335
H       -1.21786467       1.49523970      -1.01505017
H       -1.81257476      -2.87650714      -0.20226762
H       -0.63291906      -3.20853097       1.02091496
H       -0.22297399      -3.40263495      -0.63010738
O        3.78259205      -7.67142665       1.11023612
O        4.87806717      -7.26403037       1.14107503
O        5.25702586      -6.17873739       0.94096030
22
Properties=species:S:1:pos:R:3 energy=-1888.1284371977986 pbc="F F F"
C        0.48526361       1.40605905       0.35744815
C        1.42558353       0.44019419      -0.36464166
C        1.13614656      -1.02527059       0.01399165
C       -0.32284475      -1.35968670       0.00553160
C       -1.26479483      -0.40032436       0.02523745
C       -0.97449395       1.07518261       0.01444675
H        0.64757220       1.33771798       1.44917976
H        0.71413898       2.45339158       0.07433363
H        1.30867751       0.56224179      -1.45720146
H        2.47730200       0.70615574      -0.14575349
H        1.70383198      -1.68632450      -0.66635855
H        1.54493506      -1.21654707       1.02784487
C       -0.74500148      -2.78479542       0.03974882
H       -2.32299451      -0.64534091       0.02861083
H       -1.64057333       1.59385493       0.72846643
H       -1.22514769       1.48471519      -0.98290975
H       -1.79032275      -2.87797124      -0.27259820
H       -0.68124965      -3.21709056       1.00668417
H       -0.19256386      -3.43270320      -0.61113966
O        3.71406952      -7.58317002       1.14407771
O        4.81508489      -7.18973928       1.15879843
O        5.20608095      -6.11657920       0.91944255
22
Properties=species:S:1:pos:R:3 energy=-1888.1102490881176 pbc="F F F"
C        0.49652196       1.39398111       0.36611332
C        1.42964256       0.43608222      -0.37523634
C        1.15230408      -1.03440914      -0.00283409
C       -0.30396340      -1.37717299      -0.00125022
C       -1.24800410      -0.41941376       0.04193886
C       -0.96559283       1.05792686       0.03986927
H        0.67471248       1.32050991       1.45494637
H        0.71654604       2.44471998       0.08660862
H        1.29533743       0.56351077      -1.46479781
H        2.48349804       0.70838513      -0.17386880
H        1.72181476      -1.68804477      -0.68845413
H        1.57179662      -1.22656907       1.00665188
C       -0.73566689      -2.79865819       0.02140125
H       -2.30481467      -0.66751951       0.05859191
H       -1.62607775       1.56804888       0.76485744
H       -1.23210422       1.47344218      -0.95060268
H       -1.76628482      -2.87965500      -0.34147833
H       -0.72887067      -3.22460387       0.99072478
H       -0.16399485      -3.46284810      -0.59247351
O        3.64583537      -7.49441440       1.17768047
O        4.75171520      -7.11455670       1.17626301
O        5.15434967      -6.05477153       0.89858877
22
Properties=species:S:1:pos:R:3 energy=-1888.0936768374277 pbc="F F F"
C        0.50783692       1.38175123       0.37473649
C        1.43361368       0.43196933      -0.38574451
C        1.16847667      -1.04340242      -0.01949931
C       -0.28528713      -1.39439044      -0.00792561
C       -1.23104452      -0.43847983       0.05854689
C       -0.95641586       1.04040335       0.06542371
H        0.70184044       1.30323098       1.46045525
H        0.71889639       2.43578135       0.09890192
H        1.28179355       0.56445940      -1.47200322
H        2.48922501       0.71065002      -0.20175502
H        1.73935000      -1.68972582      -0.71059711
H        1.59876469      -1.23639821       0.98547573
C       -0.72656136      -2.81249507       0.00265352
H       -2.28611271      -0.69015433       0.08850726
H       -1.61117134       1.54200123       0.80126790
H       -1.23873214       1.46143450      -0.91813466
H       -1.74052638      -2.88157738      -0.40889956
H       -0.77571653      -3.23108111       0.97305580
H       -0.13724950      -3.49300400      -0.57412917
O        3.57789429      -7.40516723       1.21103213
O        4.68798766      -7.03851802       1.19347550
O        5.10183816      -5.99331752       0.87839609
22
Properties=species:S:1:pos:R:3 energy=-1888.0789138903338 pbc="F F F"
C        0.51920073       1.36936923       0.38331493
C        1.43748472       0.42784808      -0.39616172
C        1.18464883      -1.05225389      -0.03600684
C       -0.26680527      -1.41134998      -0.01448172
C       -1.21391527      -0.45754034       0.07507453
C       -0.94696462       1.02260930       0.09109746
H        0.72894753       1.28588446       1.46570297
H        0.72119313       2.42657574       0.11121243
H        1.26805005       0.56508937      -1.47881836
H        2.49447628       0.71294025      -0.22940309
H        1.75643149      -1.69136740      -0.73277989
H        1.62581388      -1.24603480       0.96431113
C       -0.71766011      -2.82628160      -0.01647089
H       -2.26691171      -0.71323126       0.11834059
H       -1.59585092       1.51571681       0.83767934
H       -1.24502931       1.44870597      -0.88551137
H       -1.71311279      -2.88375732      -0.47485345
H       -0.82172160      -3.23653249       0.95369624
H       -0.11231038      -3.52310522      -0.55612690
O        3.51025099      -7.31543597       1.24412040
O        4.62393180      -6.96165861       1.21044259
O        5.04855257      -5.93222031       0.85886163
22
Properties=species:S:1:pos:R:3 energy=-1888.0658168768584 pbc="F F F"
C        0.53060566       1.35683493       0.39184590
C        1.44124353       0.42371107      -0.40648356
C        1.20080505      -1.06096700      -0.05235953
C       -0.24850714      -1.42806251      -0.02090569
C       -1.19661553      -0.47661307       0.09153476
C       -0.93724073       1.00454192       0.11687789
H        0.75602523       1.26847362       1.47068611
H        0.72343935       2.41710318       0.12353902
H        1.25411106       0.56540236      -1.48524393
H        2.49924520       0.71524565      -0.25680392
H        1.77305301      -1.69296928      -0.75499488
H        1.65291881      -1.25547914       0.94315279
C       -0.70893838      -2.83999333      -0.03594848
H       -2.24723477      -0.73673615       0.14807560
H       -1.58011336       1.48920045       0.87407332
H       -1.25099361       1.43527040      -0.85273850
H       -1.68410947      -2.88621378      -0.53933156
H       -0.86682026      -3.24096821       0.93266510
H       -0.08916002      -3.55308609      -0.53848693
O        3.44291016      -7.22522807       1.27693299
O        4.55957718      -6.88401386       1.22717099
O        4.99449904      -5.87148304       0.83998251
22
Properties=species:S:1:pos:R:3 energy=-1888.0540019456084 pbc="F F F"
C        0.54204397       1.34414814       0.40032666
C        1.44487797       0.41955087      -0.41670557
C        1.21692980      -1.06954521      -0.06856021
C       -0.23038205      -1.44453897      -0.02718467
C       -1.17914446      -0.49571579       0.10794056
C       -0.92724578       0.98619843       0.14275237
H        0.78306501       1.25100172       1.47540126
H        0.72563813       2.40736371       0.13588060
H        1.23998076       0.56540007      -1.49128060
H        2.50352511       0.71755606      -0.28394845
H        1.78920835      -1.69453122      -0.77723449
H        1.68005409      -1.26473154       0.92199541
C       -0.70037138      -2.85360581      -0.05575575
H       -2.22710498      -0.76065489       0.17769599
H       -1.56395550       1.46245696       0.91043135
H       -1.25662292       1.42114162      -0.81982174
H       -1.65358179      -2.88896571      -0.60232545
H       -0.91094689      -3.24439850       0.90998138
H       -0.06778097      -3.58288096      -0.52122951
O        3.37587650      -7.13455096       1.30945763
O        4.49495333      -6.80561915       1.24366740
O        4.93968371      -5.81110886       0.82175585
22
Properties=species:S:1:pos:R:3 energy=-1888.0429336485565 pbc="F F F"
C        0.55350790       1.33130868       0.40875448
C        1.44837588       0.41536006      -0.42682334
C        1.23300758      -1.07799198      -0.08461172
C       -0.21241933      -1.46079027      -0.03330581
C       -1.16150124      -0.51486626       0.12430491
C       -0.91698138       0.96757605       0.16870828
H        0.81005833       1.23347203       1.47984497
H        0.72779256       2.39735739       0.14823605
H        1.22566330       0.56508417      -1.49692907
H        2.50730938       0.71986133      -0.31082761
H        1.80489129      -1.69605297      -0.79949112
H        1.70719434      -1.27379232       0.90083370
C       -0.69193435      -2.86709458      -0.07586921
H       -2.20654541      -0.78497334       0.20718545
H       -1.54737419       1.43549117       0.94673499
H       -1.26191510       1.40633345      -0.78676677
H       -1.62159515      -2.89203205      -0.66382669
H       -0.95403588      -3.24683355       0.88566408
H       -0.04815578      -3.61242414      -0.50437488
O        3.30915471      -7.04341211       1.34168202
O        4.43008982      -6.72650986       1.25993855
O        4.88411274      -5.75110089       0.80417877
22
Properties=species:S:1:pos:R:3 energy=-1888.0320038186915 pbc="F F F"
C        0.56498971       1.31831637       0.41712661
C        1.45172512       0.41113123      -0.43683242
C        1.24902289      -1.08631076      -0.10051692
C       -0.19460829      -1.47682734      -0.03925626
C       -1.14368505      -0.53408225       0.14064080
C       -0.90644914       0.94867200       0.19473299
H        0.83699666       1.21588780       1.48401384
H        0.72990573       2.38708426       0.16060428
H        1.21116283       0.56445637      -1.50219001
H        2.51059135       0.72215129      -0.33743233
H        1.82009561      -1.69753430      -0.82175719
H        1.73431416      -1.28266178       0.87966236
C       -0.68360249      -2.88043518      -0.09626538
H       -2.18557918      -0.80967737       0.23652769
H       -1.53036628       1.40830791       0.98296575
H       -1.26686804       1.39085971      -0.75357930
H       -1.58821494      -2.89543176      -0.72382682
H       -0.99602161      -3.24828359       0.85973222
H       -0.03026701      -3.64164996      -0.48794328
O        3.24274949      -6.95181896       1.37359390
O        4.36501619      -6.64672136       1.27599112
O        4.82779227      -5.69146228       0.78724838
22
Properties=species:S:1:pos:R:3 energy=-1888.020598882094 pbc="F F F"
C        0.57648166       1.30517101       0.42544033
C        1.45491352       0.40685695      -0.44672839
C        1.26496020      -1.09450502      -0.11627863
C       -0.17693824      -1.49266109      -0.04502317
C       -1.12569505      -0.55338154       0.15696120
C       -0.89565064       0.92948348       0.22081388
H        0.86387148       1.19825231       1.48790443
H        0.73198072       2.37654435       0.17298416
H        1.19648351       0.56351834      -1.50706411
H        2.51336439       0.72441578      -0.36375355
H        1.83481510      -1.69897496      -0.84402509
H        1.76138818      -1.29134023       0.85847610
C       -0.67535105      -2.89360317      -0.11692075
H       -2.16422935      -0.83475286       0.26570640
H       -1.51292861       1.38091200       1.01910519
H       -1.27147960       1.37473423      -0.72026499
H       -1.55350654      -2.89918378      -0.78231741
H       -1.03683846      -3.24875882       0.83220478
H       -0.01409718      -3.67049277      -0.47195496
O        3.17666554      -6.85977896       1.40518096
O        4.29976198      -6.56628905       1.29183183
O        4.77072844      -5.63219617       0.77096182
22
Properties=species:S:1:pos:R:3 energy=-1888.0081548995788 pbc="F F F"
C        0.58797600       1.29187244       0.43369289
C        1.45792894       0.40252980      -0.45650679
C        1.28080400      -1.10257822      -0.13189971
C       -0.15939851      -1.50830245      -0.05059368
C       -1.10753042      -0.57278190       0.17327910
C       -0.88458750       0.91000773       0.24693832
H        0.89067425       1.18056881       1.49151333
H        0.73402063       2.36573771       0.18537459
H        1.18162949       0.56227178      -1.51155206
H        2.51562185       0.72664463      -0.38978218
H        1.84904354      -1.70037473      -0.86628724
H        1.78839100      -1.29982799       0.83726962
C       -0.66715524      -2.90657408      -0.13781183
H       -2.14251902      -0.86018566       0.29470529
H       -1.49505804       1.35330827       1.05513483
H       -1.27574766       1.35797082      -0.68682955
H       -1.51753535      -2.90330707      -0.83929002
H       -1.07642081      -3.24826945       0.80310079
H        0.00037113      -3.69888689      -0.45643016
O        3.11090755      -6.76729955       1.43643094
O        4.23435674      -6.48524830       1.30746738
O        4.71292739      -5.57330570       0.75531619
22
Properties=species:S:1:pos:R:3 energy=-1887.99420031746 pbc="F F F"
C        0.59946499       1.27842046       0.44188156
C        1.46075924       0.39814238      -0.46616322
C        1.29653879      -1.11053380      -0.14738299
C       -0.14197841      -1.52376233      -0.05595495
C       -1.08919033      -0.59230108       0.18960747
C       -0.87326131       0.89024195       0.27309369
H        0.91739644       1.16284058       1.49483711
H        0.73602855       2.35466438       0.19777446
H        1.16660495       0.56071836      -1.51565454
H        2.51735707       0.72882770      -0.41550917
H        1.86277471      -1.70173334      -0.88853605
H        1.81529725      -1.30812535       0.81603762
C       -0.65899029      -2.91932346      -0.15891514
H       -2.12047128      -0.88596166       0.32350805
H       -1.47675142       1.32550153       1.09103622
H       -1.27967008       1.34058331      -0.65327867
H       -1.48036675      -2.90782058      -0.89473621
H       -1.11470304      -3.24682569       0.77243924
H        0.01315540      -3.72676665      -0.44138912
O        3.04548023      -6.67438819       1.46733154
O        4.16883002      -6.40363449       1.32290449
O        4.65439528      -5.51479401       0.74030862
22
Properties=species:S:1:pos:R:3 energy=-1887.9783868395464 pbc="F F F"
C        0.61094089       1.26481489       0.45000360
C        1.46339225       0.39368725      -0.47569322
C        1.31214906      -1.11837524      -0.16273131
C       -0.12466726      -1.53905166      -0.06109412
C       -1.07067396      -0.61195687       0.20595931
C       -0.86167368       0.87018337       0.29926736
H        0.94402952       1.14507088       1.49787235
H        0.73800756       2.34332442       0.21018266
H        1.15141402       0.55885979      -1.51937224
H        2.51856343       0.73095481      -0.44092543
H        1.87600240      -1.70305058      -0.91076391
H        1.84208152      -1.31623264       0.79477482
C       -0.65083143      -2.93182687      -0.18020716
H       -2.09810922      -0.91206673       0.35209838
H       -1.45800558       1.29749662       1.12679088
H       -1.28324475       1.32258551      -0.61961802
H       -1.44206614      -2.91274325      -0.94864753
H       -1.15161954      -3.24443775       0.74023913
H        0.02427306      -3.75406638      -0.42685209
O        2.98038827      -6.58105232       1.49787048
O        4.10321137      -6.32148300       1.33814985
O        4.59513824      -5.45666423       0.72593624
22
Properties=species:S:1:pos:R:3 energy=-1887.9605090474581 pbc="F F F"
C        0.62239595       1.25105554       0.45805628
C        1.46581582       0.38915700      -0.48509236
C        1.32761928      -1.12610598      -0.17794752
C       -0.10745439      -1.55418136      -0.06599833
C       -1.05198048      -0.63176704       0.22234758
C       -0.84982621       0.84982920       0.32544672
H        0.97056495       1.12726296       1.50061563
H        0.73996074       2.33171785       0.22259809
H        1.13606087       0.55669775      -1.52270584
H        2.51923426       0.73301581      -0.46602191
H        1.88872039      -1.70432619      -0.93296325
H        1.86871844      -1.32415016       0.77347592
C       -0.64265387      -2.94405983      -0.20166442
H       -2.07545592      -0.93848673       0.38045998
H       -1.43881739       1.26929836       1.16238035
H       -1.28646954       1.30399125      -0.58585330
H       -1.40269891      -2.91809403      -1.00101555
H       -1.18710469      -3.24111585       0.70651947
H        0.03374157      -3.78072041      -0.41283932
O        2.91563637      -6.48729939       1.52803549
O        4.03753033      -6.23882922       1.35321017
O        4.53516242      -5.39891951       0.71219615
22
Properties=species:S:1:pos:R:3 energy=-1887.940513479979 pbc="F F F"
C        0.63382242       1.23714224       0.46603685
C        1.46801781       0.38454421      -0.49435621
C        1.34293396      -1.13372949      -0.19303446
C       -0.09032909      -1.56916234      -0.07065475
C       -1.03310907      -0.65174934       0.23878528
C       -0.83772050       0.82917667       0.35161912
H        0.99699421       1.10942010       1.50306352
H        0.74189120       2.31984473       0.23501963
H        1.12054966       0.55423391      -1.52565603
H        2.51936293       0.73500052      -0.49078953
H        1.90092247      -1.70555993      -0.95512646
H        1.89518262      -1.33187822       0.75213562
C       -0.63443285      -2.95599791      -0.22326342
H       -2.05253449      -0.96520753       0.40857655
H       -1.41918370       1.24091157       1.19778618
H       -1.28934231       1.28481435      -0.55199020
H       -1.36233044      -2.92389187      -1.05183182
H       -1.22109286      -3.23687020       0.67129927
H        0.04157839      -3.80666308      -0.39937103
O        2.85122923      -6.39313686       1.55781427
O        3.97181646      -6.15570853       1.36809217
O        4.47447397      -5.34156298       0.69908548
22
Properties=species:S:1:pos:R:3 energy=-1887.9184979045845 pbc="F F F"
C        0.64521256       1.22307480       0.47394258
C        1.46998607       0.37984146      -0.50348034
C        1.35807757      -1.14124922      -0.20799496
C       -0.07328071      -1.58400554      -0.07505051
C       -1.01405889      -0.67192156       0.25528537
C       -0.82535815       0.80822297       0.37777196
H        1.02330877       1.09154557       1.50521260
H        0.74380201       2.30770509       0.24744618
H        1.10488453       0.55146999      -1.52822348
H        2.51894279       0.73689880      -0.51521921
H        1.91260241      -1.70675157      -0.97724595
H        1.92144867      -1.33941713       0.73074862
C       -0.62614359      -2.96761664      -0.24498067
H       -2.02936799      -0.99221501       0.43643179
H       -1.39910134       1.21234108       1.23298989
H       -1.29186095       1.26506863      -0.51803441
H       -1.32102613      -2.93015574      -1.10108791
H       -1.25351845      -3.23171099       0.63459752
H        0.04780097      -3.83182871      -0.38646749
O        2.78717155      -6.29857216       1.58719454
O        3.90609929      -6.07215630       1.38280254
O        4.41307902      -5.28459779       0.68660136
22
Properties=species:S:1:pos:R:3 energy=-1887.8947015939432 pbc="F F F"
C        0.65655863       1.20885304       0.48177073
C        1.47170844       0.37504133      -0.51246031
C        1.37303462      -1.14866863      -0.22283188
C       -0.05629854      -1.59872187      -0.07917276
C       -0.99482912      -0.69230147       0.27186085
C       -0.81274077       0.78696535       0.40389260
H        1.04950008       1.07364261       1.50705945
H        0.74569626       2.29529898       0.25987663
H        1.08906966       0.54840765      -1.53040889
H        2.51796719       0.73870048      -0.53930190
H        1.92375400      -1.70790087      -0.99931413
H        1.94749120      -1.34676720       0.70930964
C       -0.61776131      -2.97889157      -0.26679266
H       -2.00597953      -1.01949503       0.46400940
H       -1.37856717       1.18359171       1.26797302
H       -1.29402333       1.24476791      -0.48399161
H       -1.27885136      -2.93690456      -1.14877537
H       -1.28431584      -3.22564846       0.59643323
H        0.05242675      -3.85615164      -0.37414893
O        2.72346802      -6.20361275       1.61616403
O        3.84040838      -5.98820792       1.39734800
O        4.35098373      -5.22802707       0.67474089
22
Properties=species:S:1:pos:R:3 energy=-1887.869487605678 pbc="F F F"
C        0.66785288       1.19447677       0.48951858
C        1.47317276       0.37013641      -0.52129169
C        1.38778957      -1.15599119      -0.23754804
C       -0.03937192      -1.61332225      -0.08300866
C       -0.97541893      -0.71290682       0.28852470
C       -0.79986996       0.76540100       0.42996842
H        1.07555963       1.05571451       1.50860064
H        0.74757704       2.28262644       0.27230987
H        1.07310919       0.54504859      -1.53221295
H        2.51642949       0.74039540      -0.56302852
H        1.93437103      -1.70900758      -1.02132340
H        1.97328484      -1.35392874       0.68781338
C       -0.60926124      -2.98979825      -0.28867591
H       -1.98239220      -1.04703347       0.49129307
H       -1.35757804       1.15466828       1.30271710
H       -1.29582731       1.22392602      -0.44986749
H       -1.23587152      -2.94415730      -1.19488576
H       -1.31341939      -3.21869280       0.55682541
H        0.05547319      -3.87956620      -0.36243559
O        2.66012335      -6.10826607       1.64471043
O        3.77477328      -5.90389878       1.41173524
O        4.28819424      -5.17185397       0.66350120
22
Properties=species:S:1:pos:R:3 energy=-1887.84331834812 pbc="F F F"
C        0.67908757       1.17994581       0.49718337
C        1.47436690       0.36511927      -0.52997004
C        1.40232694      -1.16322034      -0.25214631
C       -0.02249015      -1.62781760      -0.08654534
C       -0.95582750      -0.73375540       0.30528989
C       -0.78674731       0.74352715       0.45598679
H        1.10147887       1.03776451       1.50983275
H        0.74944745       2.26968752       0.28474478
H        1.05700728       0.54139449      -1.53363633
H        2.51432304       0.74197340      -0.58639000
H        1.94444728      -1.71007146      -1.04326618
H        1.99880419      -1.36090206       0.66625455
C       -0.60061861      -3.00031222      -0.31060693
H       -1.95862907      -1.07481619       0.51826651
H       -1.33613079       1.12557563       1.33720368
H       -1.29727078       1.20255677      -0.41566775
H       -1.19215201      -2.95193290      -1.23941065
H       -1.34076351      -3.21085422       0.51579306
H        0.05695775      -3.90200672      -0.35134772
O        2.59714224      -6.01253958       1.67282149
O        3.70922353      -5.81926424       1.42597098
O        4.22471670      -5.11608162       0.65287942
22
Properties=species:S:1:pos:R:3 energy=-1887.8167260477637 pbc="F F F"
C        0.69025496       1.16525997       0.50476237
C        1.47527870       0.35998249      -0.53849093
C        1.41663119      -1.17035954      -0.26662950
C       -0.00564255      -1.64221884      -0.08976996
C       -0.93605400      -0.75486497       0.32216942
C       -0.77337444       0.72134102       0.48193509
H        1.12724929       1.01979590       1.51075235
H        0.75131056       2.25648226       0.29718027
H        1.04076809       0.53744705      -1.53467971
H        2.51164120       0.74342432      -0.60937727
H        1.95397652      -1.71109228      -1.06513487
H        2.02402386      -1.36768746       0.64462784
C       -0.59180863      -3.01040902      -0.33256222
H       -1.93471325      -1.10282907       0.54491342
H       -1.31422228       1.09631857       1.37141429
H       -1.29835160       1.18067399      -0.38139807
H       -1.14775821      -2.96025031      -1.28234158