24
Properties=species:S:1:pos:R:3 energy=-2749.5180188811805 pbc="F F F"
O        3.03457962       0.31098635       2.13847168
C        3.21980465       0.07123519       0.98715408
C        2.52105433      -0.75806195      -0.02641438
C        1.01385733      -0.84018308       0.23098160
C        0.30233377       0.47263537      -0.11073111
C       -1.20882072       0.41858044       0.15557827
H       -1.48940353       1.01248361       1.05552714
C       -2.04137302       0.91514102      -1.05124956
O       -1.53453712       1.61096449      -1.89985819
C       -3.47680455       0.51038066      -1.06040782
H       -2.16246489      -1.51795645       2.07387023
H        2.73594545      -0.37169819      -1.05268865
H        2.96804060      -1.78034953      -0.01847035
H        0.58303476      -1.67200233      -0.36509907
H        0.82377126      -1.10562778       1.29352619
H        0.74314350       1.31354173       0.45894899
H        0.47795961       0.72603831      -1.18415055
H       -4.07003424       1.12690282      -0.36783647
H       -3.92510235       0.62356739      -2.05737583
H       -3.61128950      -0.53578479      -0.73386424
O       -1.53642335      -0.97828129       0.39535110
O       -2.59715694      -0.97963034       1.34554143
O        4.73385599       0.64478462      -0.68516080
O        4.49602933       0.78233371       0.47835631
24
Properties=species:S:1:pos:R:3 energy=-2749.5180115159696 pbc="F F F"
O        3.03457731       0.31097579       2.13846794
C        3.21980286       0.07123237       0.98714885
C        2.52104937      -0.75805336      -0.02642800
C        1.01385304      -0.84017836       0.23097082
C        0.30233020       0.47264854      -0.11071073
C       -1.20882635       0.41858424       0.15558694
H       -1.48940135       1.01247680       1.05552832
C       -2.04136996       0.91513606      -1.05125173
O       -1.53452827       1.61095738      -1.89985857
C       -3.47679903       0.51036968      -1.06042168
H       -2.16245352      -1.51795933       2.07387206
H        2.73594019      -0.37169559      -1.05268475
H        2.96804330      -1.78034948      -0.01847592
H        0.58304378      -1.67200528      -0.36509597
H        0.82376524      -1.10562401       1.29353247
H        0.74313544       1.31353740       0.45894677
H        0.47796542       0.72603731      -1.18415623
H       -4.07003488       1.12691599      -0.36784130
H       -3.92510145       0.62356332      -2.05737824
H       -3.61129579      -0.53577702      -0.73386313
O       -1.53642481      -0.97827858       0.39536268
O       -2.59716247      -0.97963259       1.34555001
O        4.73385989       0.64478947      -0.68515916
O        4.49603185       0.78232925       0.47835855
24
Properties=species:S:1:pos:R:3 energy=-2749.5180039053516 pbc="F F F"
O        3.03457502       0.31096534       2.13846416
C        3.21980103       0.07122963       0.98714358
C        2.52104440      -0.75804471      -0.02644162
C        1.01384874      -0.84017368       0.23096004
C        0.30232663       0.47266169      -0.11069024
C       -1.20883200       0.41858801       0.15559566
H       -1.48939904       1.01246975       1.05552929
C       -2.04136687       0.91513110      -1.05125391
O       -1.53451934       1.61095024      -1.89985895
C       -3.47679352       0.51035874      -1.06043563
H       -2.16244186      -1.51796235       2.07387373
H        2.73593481      -0.37169307      -1.05268045
H        2.96804619      -1.78034955      -0.01848146
H        0.58305306      -1.67200829      -0.36509279
H        0.82375904      -1.10562032       1.29353912
H        0.74312709       1.31353258       0.45894438
H        0.47797148       0.72603634      -1.18416227
H       -4.07003576       1.12692954      -0.36784592
H       -3.92510050       0.62355929      -2.05738056
H       -3.61130215      -0.53576893      -0.73386216
O       -1.53642635      -0.97827588       0.39537432
O       -2.59716808      -0.97963491       1.34555865
O        4.73386367       0.64479448      -0.68515764
O        4.49603430       0.78232493       0.47836067
24
Properties=species:S:1:pos:R:3 energy=-2749.517996158392 pbc="F F F"
O        3.03457275       0.31095500       2.13846034
C        3.21979919       0.07122699       0.98713827
C        2.52103942      -0.75803600      -0.02645524
C        1.01384443      -0.84016902       0.23094928
C        0.30232305       0.47267484      -0.11066965
C       -1.20883766       0.41859175       0.15560442
H       -1.48939658       1.01246246       1.05553006
C       -2.04136374       0.91512614      -1.05125610
O       -1.53451032       1.61094307      -1.89985932
C       -3.47678799       0.51034783      -1.06044967
H       -2.16242991      -1.51796551       2.07387523
H        2.73592930      -0.37169063      -1.05267574
H        2.96804928      -1.78034974      -0.01848697
H        0.58306260      -1.67201135      -0.36508953
H        0.82375266      -1.10561673       1.29354615
H        0.74311845       1.31352727       0.45894180
H        0.47797780       0.72603540      -1.18416869
H       -4.07003688       1.12694350      -0.36785030
H       -3.92509952       0.62355532      -2.05738278
H       -3.61130859      -0.53576051      -0.73386133
O       -1.53642797      -0.97827319       0.39538602
O       -2.59717377      -0.97963730       1.34556733
O        4.73386733       0.64479964      -0.68515625
O        4.49603667       0.78232077       0.47836268
24
Properties=species:S:1:pos:R:3 energy=-2749.517988230877 pbc="F F F"
O        3.03457049       0.31094477       2.13845648
C        3.21979731       0.07122444       0.98713292
C        2.52103443      -0.75802723      -0.02646887
C        1.01384013      -0.84016440       0.23093852
C        0.30231947       0.47268798      -0.11064894
C       -1.20884334       0.41859545       0.15561324
H       -1.48939398       1.01245492       1.05553060
C       -2.04136059       0.91512116      -1.05125831
O       -1.53450121       1.61093587      -1.89985969
C       -3.47678247       0.51033696      -1.06046380
H       -2.16241764      -1.51796881       2.07387654
H        2.73592367      -0.37168828      -1.05267062
H        2.96805258      -1.78035004      -0.01849245
H        0.58307241      -1.67201448      -0.36508617
H        0.82374609      -1.10561323       1.29355358
H        0.74310950       1.31352146       0.45893903
H        0.47798438       0.72603450      -1.18417550
H       -4.07003826       1.12695786      -0.36785445
H       -3.92509850       0.62355139      -2.05738490
H       -3.61131510      -0.53575175      -0.73386063
O       -1.53642968      -0.97827051       0.39539779
O       -2.59717954      -0.97963976       1.34557605
O        4.73387087       0.64480495      -0.68515498
O        4.49603896       0.78231677       0.47836458
24
Properties=species:S:1:pos:R:3 energy=-2749.5179801127856 pbc="F F F"
O        3.03456825       0.31093465       2.13845258
C        3.21979541       0.07122199       0.98712752
C        2.52102944      -0.75801839      -0.02648250
C        1.01383582      -0.84015980       0.23092778
C        0.30231588       0.47270111      -0.11062812
C       -1.20884903       0.41859913       0.15562210
H       -1.48939124       1.01244713       1.05553092
C       -2.04135740       0.91511619      -1.05126054
O       -1.53449202       1.61092863      -1.89986006
C       -3.47677693       0.51032614      -1.06047802
H       -2.16240506      -1.51797227       2.07387766
H        2.73591792      -0.37168601      -1.05266508
H        2.96805610      -1.78035047      -0.01849790
H        0.58308249      -1.67201767      -0.36508273
H        0.82373933      -1.10560984       1.29356141
H        0.74310025       1.31351512       0.45893607
H        0.47799123       0.72603363      -1.18418271
H       -4.07003989       1.12697264      -0.36785835
H       -3.92509743       0.62354752      -2.05738692
H       -3.61132168      -0.53574265      -0.73386007
O       -1.53643147      -0.97826784       0.39540961
O       -2.59718540      -0.97964229       1.34558481
O        4.73387428       0.64481043      -0.68515384
O        4.49604117       0.78231292       0.47836637
24
Properties=species:S:1:pos:R:3 energy=-2749.5179717974165 pbc="F F F"
O        3.03456603       0.31092464       2.13844865
C        3.21979348       0.07121964       0.98712208
C        2.52102444      -0.75800949      -0.02649613
C        1.01383151      -0.84015524       0.23091705
C        0.30231229       0.47271423      -0.11060718
C       -1.20885474       0.41860277       0.15563102
H       -1.48938834       1.01243908       1.05553100
C       -2.04135418       0.91511120      -1.05126278
O       -1.53448273       1.61092137      -1.89986042
C       -3.47677140       0.51031536      -1.06049234
H       -2.16239215      -1.51797587       2.07387859
H        2.73591204      -0.37168384      -1.05265908
H        2.96805983      -1.78035102      -0.01850331
H        0.58309285      -1.67202092      -0.36507919
H        0.82373237      -1.10560655       1.29356965
H        0.74309069       1.31350825       0.45893290
H        0.47799836       0.72603279      -1.18419034
H       -4.07004181       1.12698784      -0.36786200
H       -3.92509632       0.62354370      -2.05738883
H       -3.61132835      -0.53573319      -0.73385965
O       -1.53643335      -0.97826517       0.39542151
O       -2.59719134      -0.97964489       1.34559361
O        4.73387755       0.64481607      -0.68515284
O        4.49604328       0.78230923       0.47836803
24
Properties=species:S:1:pos:R:3 energy=-2749.5179632778436 pbc="F F F"
O        3.03456382       0.31091476       2.13844467
C        3.21979153       0.07121739       0.98711660
C        2.52101944      -0.75800052      -0.02650975
C        1.01382719      -0.84015071       0.23090634
C        0.30230869       0.47272733      -0.11058614
C       -1.20886046       0.41860638       0.15563998
H       -1.48938529       1.01243076       1.05553085
C       -2.04135093       0.91510621      -1.05126503
O       -1.53447336       1.61091408      -1.89986078
C       -3.47676586       0.51030462      -1.06050674
H       -2.16237891      -1.51797962       2.07387931
H        2.73590603      -0.37168175      -1.05265264
H        2.96806379      -1.78035170      -0.01850869
H        0.58310349      -1.67202423      -0.36507556
H        0.82372522      -1.10560336       1.29357832
H        0.74308080       1.31350082       0.45892953
H        0.47800577       0.72603200      -1.18419839
H       -4.07004400       1.12700348      -0.36786538
H       -3.92509517       0.62353994      -2.05739063
H       -3.61133508      -0.53572337      -0.73385939
O       -1.53643532      -0.97826252       0.39543346
O       -2.59719737      -0.97964755       1.34560245
O        4.73388068       0.64482187      -0.68515196
O        4.49604531       0.78230571       0.47836958
24
Properties=species:S:1:pos:R:3 energy=-2749.5179545432234 pbc="F F F"
O        3.03456164       0.31090499       2.13844066
C        3.21978954       0.07121524       0.98711107
C        2.52101443      -0.75799149      -0.02652336
C        1.01382288      -0.84014622       0.23089564
C        0.30230509       0.47274041      -0.11056497
C       -1.20886619       0.41860996       0.15564900
H       -1.48938209       1.01242216       1.05553044
C       -2.04134764       0.91510122      -1.05126731
O       -1.53446390       1.61090677      -1.89986113
C       -3.47676033       0.51029393      -1.06052123
H       -2.16236532      -1.51798353       2.07387981
H        2.73589988      -0.37167976      -1.05264572
H        2.96806798      -1.78035251      -0.01851403
H        0.58311442      -1.67202761      -0.36507184
H        0.82371787      -1.10560030       1.29358743
H        0.74307059       1.31349283       0.45892594
H        0.47801347       0.72603125      -1.18420688
H       -4.07004649       1.12701956      -0.36786850
H       -3.92509397       0.62353623      -2.05739232
H       -3.61134190      -0.53571317      -0.73385927
O       -1.53643738      -0.97825987       0.39544548
O       -2.59720347      -0.97965028       1.34561133
O        4.73388367       0.64482784      -0.68515123
O        4.49604724       0.78230236       0.47837099
24
Properties=species:S:1:pos:R:3 energy=-2749.5179455864272 pbc="F F F"
O        3.03455947       0.31089535       2.13843660
C        3.21978753       0.07121320       0.98710550
C        2.52100942      -0.75798239      -0.02653697
C        1.01381857      -0.84014177       0.23088496
C        0.30230149       0.47275348      -0.11054369
C       -1.20887193       0.41861350       0.15565806
H       -1.48937872       1.01241329       1.05552977
C       -2.04134431       0.91509623      -1.05126959
O       -1.53445435       1.61089942      -1.89986148
C       -3.47675479       0.51028329      -1.06053582
H       -2.16235138      -1.51798758       2.07388010
H        2.73589360      -0.37167787      -1.05263832
H        2.96807240      -1.78035347      -0.01851934
H        0.58312564      -1.67203105      -0.36506801
H        0.82371030      -1.10559735       1.29359699
H        0.74306003       1.31348425       0.45892213
H        0.47802146       0.72603054      -1.18421581
H       -4.07004929       1.12703608      -0.36787133
H       -3.92509273       0.62353257      -2.05739388
H       -3.61134878      -0.53570260      -0.73385931
O       -1.53643953      -0.97825722       0.39545756
O       -2.59720967      -0.97965308       1.34562024
O        4.73388651       0.64483399      -0.68515065
O        4.49604907       0.78229919       0.47837228
24
Properties=species:S:1:pos:R:3 energy=-2749.5179363968236 pbc="F F F"
O        3.03455731       0.31088583       2.13843251
C        3.21978548       0.07121126       0.98709989
C        2.52100440      -0.75797321      -0.02655057
C        1.01381425      -0.84013735       0.23087430
C        0.30229788       0.47276653      -0.11052229
C       -1.20887768       0.41861701       0.15566717
H       -1.48937518       1.01240413       1.05552883
C       -2.04134095       0.91509123      -1.05127190
O       -1.53444472       1.61089205      -1.89986183
C       -3.47674925       0.51027270      -1.06055049
H       -2.16233708      -1.51799179       2.07388016
H        2.73588719      -0.37167607      -1.05263041
H        2.96807707      -1.78035456      -0.01852460
H        0.58313716      -1.67203455      -0.36506409
H        0.82370253      -1.10559452       1.29360702
H        0.74304913       1.31347507       0.45891810
H        0.47802976       0.72602987      -1.18422520
H       -4.07005240       1.12705307      -0.36787388
H       -3.92509143       0.62352898      -2.05739532
H       -3.61135575      -0.53569164      -0.73385951
O       -1.53644178      -0.97825459       0.39546970
O       -2.59721594      -0.97965595       1.34562919
O        4.73388919       0.64484031      -0.68515021
O        4.49605081       0.78229619       0.47837344
24
Properties=species:S:1:pos:R:3 energy=-2749.517926966699 pbc="F F F"
O        3.03455518       0.31087645       2.13842837
C        3.21978340       0.07120944       0.98709423
C        2.52099939      -0.75796396      -0.02656416
C        1.01380994      -0.84013298       0.23086366
C        0.30229428       0.47277956      -0.11050078
C       -1.20888345       0.41862048       0.15567634
H       -1.48937147       1.01239467       1.05552761
C       -2.04133756       0.91508623      -1.05127422
O       -1.53443499       1.61088465      -1.89986217
C       -3.47674372       0.51026216      -1.06056526
H       -2.16232240      -1.51799616       2.07387997
H        2.73588063      -0.37167438      -1.05262200
H        2.96808199      -1.78035579      -0.01852982
H        0.58314899      -1.67203812      -0.36506006
H        0.82369455      -1.10559183       1.29361753
H        0.74303787       1.31346528       0.45891383
H        0.47803836       0.72602925      -1.18423507
H       -4.07005585       1.12707053      -0.36787612
H       -3.92509009       0.62352545      -2.05739663
H       -3.61136278      -0.53568028      -0.73385986
O       -1.53644411      -0.97825195       0.39548190
O       -2.59722230      -0.97965888       1.34563817
O        4.73389172       0.64484681      -0.68514992
O        4.49605244       0.78229338       0.47837446
24
Properties=species:S:1:pos:R:3 energy=-2749.517917281206 pbc="F F F"
O        3.03455306       0.31086720       2.13842419
C        3.21978129       0.07120773       0.98708852
C        2.52099437      -0.75795464      -0.02657773
C        1.01380563      -0.84012865       0.23085305
C        0.30229067       0.47279257      -0.11047914
C       -1.20888922       0.41862391       0.15568555
H       -1.48936758       1.01238492       1.05552611
C       -2.04133413       0.91508123      -1.05127656
O       -1.53442517       1.61087722      -1.89986252
C       -3.47673819       0.51025167      -1.06058012
H       -2.16230734      -1.51800068       2.07387954
H        2.73587392      -0.37167278      -1.05261305
H        2.96808716      -1.78035717      -0.01853500
H        0.58316112      -1.67204176      -0.36505593
H        0.82368635      -1.10558926       1.29362852
H        0.74302624       1.31345485       0.45890931
H        0.47804728       0.72602868      -1.18424542
H       -4.07005963       1.12708847      -0.36787805
H       -3.92508870       0.62352197      -2.05739780
H       -3.61136989      -0.53566852      -0.73386039
O       -1.53644654      -0.97824932       0.39549417
O       -2.59722874      -0.97966188       1.34564718
O        4.73389407       0.64485349      -0.68514979
O        4.49605396       0.78229076       0.47837535
24
Properties=species:S:1:pos:R:3 energy=-2749.517907334598 pbc="F F F"
O        3.03455096       0.31085808       2.13841997
C        3.21977915       0.07120613       0.98708278
C        2.52098936      -0.75794525      -0.02659128
C        1.01380132      -0.84012436       0.23084246
C        0.30228706       0.47280555      -0.11045738
C       -1.20889500       0.41862730       0.15569481
H       -1.48936351       1.01237485       1.05552431
C       -2.04133066       0.91507623      -1.05127891
O       -1.53441526       1.61086977      -1.89986286
C       -3.47673267       0.51024124      -1.06059507
H       -2.16229188      -1.51800536       2.07387885
H        2.73586707      -0.37167129      -1.05260356
H        2.96809260      -1.78035870      -0.01854014
H        0.58317357      -1.67204546      -0.36505169
H        0.82367793      -1.10558684       1.29364003
H        0.74301425       1.31344376       0.45890455
H        0.47805652       0.72602816      -1.18425627
H       -4.07006377       1.12710690      -0.36787966
H       -3.92508726       0.62351856      -2.05739884
H       -3.61137707      -0.53565634      -0.73386108
O       -1.53644907      -0.97824668       0.39550649
O       -2.59723527      -0.97966494       1.34565621
O        4.73389626       0.64486036      -0.68514982
O        4.49605538       0.78228833       0.47837609
24
Properties=species:S:1:pos:R:3 energy=-2749.5178971501787 pbc="F F F"
O        3.03454888       0.31084911       2.13841571
C        3.21977697       0.07120465       0.98707698
C        2.52098434      -0.75793578      -0.02660482
C        1.01379702      -0.84012012       0.23083190
C        0.30228346       0.47281851      -0.11043550
C       -1.20890079       0.41863066       0.15570412
H       -1.48935926       1.01236447       1.05552221
C       -2.04132716       0.91507123      -1.05128128
O       -1.53440527       1.61086229      -1.89986319
C       -3.47672715       0.51023087      -1.06061011
H       -2.16227600      -1.51801020       2.07387790
H        2.73586007      -0.37166991      -1.05259350
H        2.96809830      -1.78036039      -0.01854522
H        0.58318635      -1.67204923      -0.36504733
H        0.82366928      -1.10558456       1.29365205
H        0.74300187       1.31343200       0.45889953
H        0.47806609       0.72602770      -1.18426763
H       -4.07006827       1.12712583      -0.36788093
H       -3.92508576       0.62351521      -2.05739973
H       -3.61138433      -0.53564373      -0.73386195
O       -1.53645169      -0.97824405       0.39551887
O       -2.59724187      -0.97966806       1.34566527
O        4.73389827       0.64486742      -0.68515002
O        4.49605668       0.78228610       0.47837669
24
Properties=species:S:1:pos:R:3 energy=-2749.517886601186 pbc="F F F"
O        3.03454682       0.31084027       2.13841141
C        3.21977475       0.07120330       0.98707114
C        2.52097932      -0.75792623      -0.02661833
C        1.01379272      -0.84011593       0.23082137
C        0.30227985       0.47283144      -0.11041350
C       -1.20890658       0.41863398       0.15571347
H       -1.48935481       1.01235375       1.05551979
C       -2.04132362       0.91506623      -1.05128366
O       -1.53439518       1.61085479      -1.89986353
C       -3.47672164       0.51022055      -1.06062525
H       -2.16225971      -1.51801520       2.07387666
H        2.73585292      -0.37166863      -1.05258286
H        2.96810429      -1.78036223      -0.01855026
H        0.58319945      -1.67205307      -0.36504287
H        0.82366040      -1.10558244       1.29366461
H        0.74298910       1.31341956       0.45889425
H        0.47807599       0.72602728      -1.18427952
H       -4.07007315       1.12714527      -0.36788186
H       -3.92508421       0.62351192      -2.05740048
H       -3.61139165      -0.53563069      -0.73386299
O       -1.53645441      -0.97824142       0.39553131
O       -2.59724856      -0.97967125       1.34567435
O        4.73390009       0.64487467      -0.68515038
O        4.49605786       0.78228406       0.47837713
24
Properties=species:S:1:pos:R:3 energy=-2749.5178758303496 pbc="F F F"
O        3.03454478       0.31083159       2.13840707
C        3.21977249       0.07120206       0.98706526
C        2.52097431      -0.75791660      -0.02663182
C        1.01378842      -0.84011179       0.23081086
C        0.30227625       0.47284434      -0.11039137
C       -1.20891238       0.41863725       0.15572288
H       -1.48935017       1.01234271       1.05551704
C       -2.04132004       0.91506123      -1.05128606
O       -1.53438500       1.61084726      -1.89986386
C       -3.47671615       0.51021030      -1.06064047
H       -2.16224299      -1.51802035       2.07387514
H        2.73584561      -0.37166746      -1.05257163
H        2.96811055      -1.78036423      -0.01855524
H        0.58321288      -1.67205697      -0.36503829
H        0.82365128      -1.10558046       1.29367771
H        0.74297592       1.31340640       0.45888869
H        0.47808624       0.72602693      -1.18429195
H       -4.07007843       1.12716523      -0.36788244
H       -3.92508261       0.62350869      -2.05740107
H       -3.61139905      -0.53561720      -0.73386422
O       -1.53645723      -0.97823879       0.39554381
O       -2.59725532      -0.97967449       1.34568345
O        4.73390172       0.64488212      -0.68515092
O        4.49605891       0.78228224       0.47837743
24
Properties=species:S:1:pos:R:3 energy=-2749.5178646681525 pbc="F F F"
O        3.03454275       0.31082304       2.13840268
C        3.21977020       0.07120095       0.98705933
C        2.52096930      -0.75790688      -0.02664528
C        1.01378413      -0.84010769       0.23080040
C        0.30227264       0.47285720      -0.11036912
C       -1.20891819       0.41864048       0.15573233
H       -1.48934533       1.01233132       1.05551396
C       -2.04131642       0.91505623      -1.05128848
O       -1.53437473       1.61083972      -1.89986419
C       -3.47671066       0.51020010      -1.06065578
H       -2.16222582      -1.51802567       2.07387331
H        2.73583815      -0.37166641      -1.05255977
H        2.96811711      -1.78036641      -0.01856017
H        0.58322666      -1.67206095      -0.36503359
H        0.82364192      -1.10557866       1.29369139
H        0.74296233       1.31339251       0.45888285
H        0.47809685       0.72602663      -1.18430494
H       -4.07008411       1.12718572      -0.36788264
H       -3.92508094       0.62350554      -2.05740150
H       -3.61140652      -0.53560326      -0.73386563
O       -1.53646015      -0.97823615       0.39555637
O       -2.59726216      -0.97967779       1.34569256
O        4.73390315       0.64488977      -0.68515164
O        4.49605984       0.78228063       0.47837757
24
Properties=species:S:1:pos:R:3 energy=-2749.5178532558766 pbc="F F F"
O        3.03454074       0.31081466       2.13839825
C        3.21976786       0.07119997       0.98705335
C        2.52096430      -0.75789708      -0.02665871
C        1.01377984      -0.84010365       0.23078996
C        0.30226904       0.47287004      -0.11034673
C       -1.20892399       0.41864367       0.15574182
H       -1.48934028       1.01231959       1.05551052
C       -2.04131276       0.91505124      -1.05129091
O       -1.53436437       1.61083214      -1.89986451
C       -3.47670518       0.51018997      -1.06067119
H       -2.16220819      -1.51803115       2.07387117
H        2.73583052      -0.37166547      -1.05254729
H        2.96812397      -1.78036875      -0.01856505
H        0.58324078      -1.67206499      -0.36502877
H        0.82363232      -1.10557702       1.29370564
H        0.74294832       1.31337786       0.45887673
H        0.47810781       0.72602640      -1.18431849
H       -4.07009022       1.12720675      -0.36788246
H       -3.92507922       0.62350244      -2.05740176
H       -3.61141405      -0.53558885      -0.73386722
O       -1.53646318      -0.97823350       0.39556898
O       -2.59726908      -0.97968115       1.34570169
O        4.73390437       0.64489763      -0.68515254
O        4.49606064       0.78227923       0.47837754
24
Properties=species:S:1:pos:R:3 energy=-2749.517841463122 pbc="F F F"
O        3.03453875       0.31080642       2.13839377
C        3.21976548       0.07119912       0.98704732
C        2.52095929      -0.75788720      -0.02667211
C        1.01377556      -0.84009967       0.23077957
C        0.30226544       0.47288284      -0.11032422
C       -1.20892980       0.41864682       0.15575137
H       -1.48933501       1.01230749       1.05550673
C       -2.04130906       0.91504625      -1.05129337
O       -1.53435393       1.61082456      -1.89986484
C       -3.47669972       0.51017991      -1.06068668
H       -2.16219009      -1.51803678       2.07386871
H        2.73582273      -0.37166464      -1.05253415
H        2.96813114      -1.78037126      -0.01856986
H        0.58325525      -1.67206910      -0.36502383
H        0.82362247      -1.10557555       1.29372049
H        0.74293388       1.31336245       0.45887031
H        0.47811914       0.72602624      -1.18433263
H       -4.07009676       1.12722834      -0.36788189
H       -3.92507744       0.62349942      -2.05740185
H       -3.61142166      -0.53557396      -0.73386902
O       -1.53646630      -0.97823084       0.39558164
O       -2.59727607      -0.97968456       1.34571082
O        4.73390539       0.64490568      -0.68515363
O        4.49606131       0.78227804       0.47837735
24
Properties=species:S:1:pos:R:3 energy=-2749.5178292740497 pbc="F F F"
O        3.03453682       0.31079833       2.13838926
C        3.21976308       0.07119839       0.98704125
C        2.52095429      -0.75787722      -0.02668546
C        1.01377128      -0.84009571       0.23076921
C        0.30226184       0.47289564      -0.11030157
C       -1.20893562       0.41864994       0.15576096
H       -1.48932955       1.01229503       1.05550257
C       -2.04130533       0.91504126      -1.05129583
O       -1.53434339       1.61081695      -1.89986516
C       -3.47669428       0.51016989      -1.06070228
H       -2.16217149      -1.51804259       2.07386590
H        2.73581476      -0.37166393      -1.05252033
H        2.96813859      -1.78037396      -0.01857462
H        0.58327008      -1.67207326      -0.36501877
H        0.82361235      -1.10557424       1.29373596
H        0.74291898       1.31334628       0.45886358
H        0.47813084       0.72602617      -1.18434736
H       -4.07010376       1.12725046      -0.36788093
H       -3.92507559       0.62349643      -2.05740177
H       -3.61142932      -0.53555861      -0.73387101
O       -1.53646952      -0.97822817       0.39559436
O       -2.59728313      -0.97968804       1.34571995
O        4.73390621       0.64491392      -0.68515492
O        4.49606187       0.78227705       0.47837699
24
Properties=species:S:1:pos:R:3 energy=-2749.5178167497843 pbc="F F F"
O        3.03453486       0.31079041       2.13838470
C        3.21976061       0.07119780       0.98703513
C        2.52094930      -0.75786716      -0.02669878
C        1.01376702      -0.84009185       0.23075890
C        0.30225825       0.47290836      -0.11027879
C       -1.20894143       0.41865299       0.15577060
H       -1.48932384       1.01228218       1.05549802
C       -2.04130154       0.91503628      -1.05129831
O       -1.53433276       1.61080932      -1.89986548
C       -3.47668885       0.51015996      -1.06071795
H       -2.16215240      -1.51804854       2.07386275
H        2.73580662      -0.37166334      -1.05250582
H        2.96814640      -1.78037683      -0.01857931
H        0.58328528      -1.67207752      -0.36501357
H        0.82360199      -1.10557315       1.29375206
H        0.74290363       1.31332925       0.45885654
H        0.47814294       0.72602614      -1.18436271
H       -4.07011122       1.12727319      -0.36787953
H       -3.92507369       0.62349354      -2.05740150
H       -3.61143706      -0.53554274      -0.73387320
O       -1.53647285      -0.97822550       0.39560713