24
Properties=species:S:1:pos:R:3 energy=-2749.7015906771476 pbc="F F F"
O       -3.62491188       1.24510102       2.92782875
C       -2.69302555       1.28947588       2.22289572
C       -2.22549880       1.77811168       0.92627932
C       -3.32973049       2.41752485       0.07602073
C       -3.81664505       3.76543252       0.61906999
C       -5.30369023       4.01631408       0.34499553
H       -5.63488610       4.95973354       0.84169583
C       -5.62608522       4.10612281      -1.15844061
O       -4.93927991       4.79857167      -1.87320412
C       -6.80311171       3.33075112      -1.64926870
H       -5.55053938       2.36500491       2.55700892
H       -1.37836567       2.48110935       1.08738424
H       -1.76063303       0.92893745       0.37275883
H       -2.94467493       2.55212413      -0.95544815
H       -4.18393591       1.71202470       0.01578831
H       -3.64458158       3.84875374       1.71134917
H       -3.22321624       4.58421625       0.16380085
H       -7.72191047       3.58750054      -1.09878396
H       -6.99143066       3.52332664      -2.71564135
H       -6.66630361       2.24461221      -1.52137184
O       -6.12065433       2.92312230       0.85557513
O       -6.19644503       3.08841687       2.25969147
O        6.33452830       7.10395828      -2.81292719
O        5.66925750       7.29127347      -3.67562685
24
Properties=species:S:1:pos:R:3 energy=-2749.700501710625 pbc="F F F"
O       -3.58322683       1.25795802       2.91578781
C       -2.65579987       1.30948636       2.20550685
C       -2.20623553       1.79236048       0.90165946
C       -3.32435491       2.42400613       0.06617181
C       -3.80777798       3.77292109       0.61006331
C       -5.29621743       4.02034284       0.34379544
H       -5.62753014       4.96403516       0.83963545
C       -5.62513095       4.10454342      -1.15807030
O       -4.94481986       4.79752190      -1.87802044
C       -6.80155932       3.32331122      -1.63977836
H       -5.55641751       2.38183588       2.56566778
H       -1.36428771       2.50284242       1.04883364
H       -1.74716770       0.94110468       0.34644664
H       -2.95229316       2.55268253      -0.96962276
H       -4.17418204       1.71334740       0.02117085
H       -3.63037136       3.85780935       1.70104325
H       -3.21865384       4.59120924       0.14876151
H       -7.71718806       3.57828943      -1.08323306
H       -6.99653560       3.51273102      -2.70517598
H       -6.65903291       2.23830435      -1.51053199
O       -6.10647112       2.92338935       0.85554656
O       -6.20162745       3.09974097       2.25618592
O        6.25239450       7.05601165      -2.75716946
O        5.56871680       7.22573510      -3.60324390
24
Properties=species:S:1:pos:R:3 energy=-2749.697348569602 pbc="F F F"
O       -3.54152812       1.27079507       2.90375702
C       -2.61850125       1.32954681       2.18800645
C       -2.18701093       1.80662354       0.87699357
C       -3.31898158       2.43049626       0.05634667
C       -3.79892760       3.78038807       0.60105112
C       -5.28873877       4.02437342       0.34259088
H       -5.62016365       4.96833382       0.83755364
C       -5.62421935       4.10295961      -1.15767644
O       -4.95036365       4.79646216      -1.88283741
C       -6.80000455       3.31586821      -1.63028315
H       -5.56232961       2.39869384       2.57430065
H       -1.35029356       2.52451500       1.01025411
H       -1.73372429       0.95329751       0.32016284
H       -2.95989874       2.55321510      -0.98371242
H       -4.16433967       1.71469161       0.02661251
H       -3.61616484       3.86689730       1.69071978
H       -3.21411397       4.59815534       0.13373220
H       -7.71245502       3.56908448      -1.06770717
H       -7.00163139       3.50214524      -2.69468583
H       -6.65176835       2.23199084      -1.49971194
O       -6.09222881       2.92364741       0.85556785
O       -6.20683644       3.11106683       2.25267996
O        6.17060814       7.00812013      -2.70123654
O        5.46784604       7.16015241      -3.53104833
24
Properties=species:S:1:pos:R:3 energy=-2749.6932183612416 pbc="F F F"
O       -3.49979480       1.28360896       2.89172441
C       -2.58114613       1.34966650       2.17039260
C       -2.16783772       1.82090266       0.85229075
C       -3.31360571       2.43698431       0.04655205
C       -3.79009568       3.78783299       0.59203378
C       -5.28125742       4.02840226       0.34137979
H       -5.61278836       4.97262880       0.83545134
C       -5.62334966       4.10137367      -1.15726248
O       -4.95591529       4.79538865      -1.88765112
C       -6.79844605       3.30842464      -1.62078406
H       -5.56828382       2.41558559       2.58290549
H       -1.33639472       2.54612183       0.97164387
H       -1.72030671       0.96551420       0.29391171
H       -2.96749949       2.55371705      -0.99770761
H       -4.15440145       1.71606025       0.03211833
H       -3.60196388       3.87601607       1.68037884
H       -3.20959832       4.60505344       0.11871475
H       -7.70771044       3.55988660      -1.05220824
H       -7.00671750       3.49156999      -2.68417066
H       -6.64451047       2.22567389      -1.48891302
O       -6.07791623       2.92389851       0.85566110
O       -6.21206996       3.12238424       2.24915477
O        6.08911224       6.96034075      -2.64528020
O        5.36672759       7.09448415      -3.45890617
24
Properties=species:S:1:pos:R:3 energy=-2749.6886107663336 pbc="F F F"
O       -3.45800590       1.29639649       2.87967802
C       -2.54375094       1.36985470       2.15266341
C       -2.14872862       1.83519961       0.82756005
C       -3.30822256       2.44345936       0.03679468
C       -3.78128396       3.79525540       0.58301163
C       -5.27377649       4.03242577       0.34016007
H       -5.60540598       4.97691938       0.83332947
C       -5.62252112       4.09978788      -1.15683188
O       -4.96147875       4.79429756      -1.89245772
C       -6.79688248       3.30098308      -1.61128207
H       -5.57428827       2.43251793       2.59148025
H       -1.32260270       2.56765765       0.93300118
H       -1.70691885       0.97775301       0.26769759
H       -2.97510324       2.55418364      -1.01159886
H       -4.14436001       1.71745628       0.03769333
H       -3.58777033       3.88516412       1.67002056
H       -3.20510858       4.61190245       0.10371097
H       -7.70295343       3.55069669      -1.03673819
H       -7.01179341       3.48100594      -2.67363023
H       -6.63725978       2.21935572      -1.47813653
O       -6.06352220       2.92414472       0.85584846
O       -6.21732598       3.13368302       2.24559150
O        6.00784980       6.91273055      -2.58945218
O        5.26544382       7.02868904      -3.38668350
24
Properties=species:S:1:pos:R:3 energy=-2749.6836725756507 pbc="F F F"
O       -3.41614046       1.30915446       2.86760590
C       -2.50633212       1.39012067       2.13481696
C       -2.12969634       1.84951618       0.80281058
C       -3.30282737       2.44991048       0.02708129
C       -3.77249421       3.80265483       0.57398505
C       -5.26629914       4.03644038       0.33892965
H       -5.59801823       4.98120485       0.83118894
C       -5.62173297       4.09820455      -1.15638811
O       -4.96705805       4.79318510      -1.89725330
C       -6.79531250       3.29354611      -1.60177817
H       -5.58035109       2.44949767       2.60002287
H       -1.30892901       2.58911720       0.89432427
H       -1.69356458       0.99001217       0.24152476
H       -2.98271780       2.55461008      -1.02537668
H       -4.13420801       1.71888262       0.04334256
H       -3.57358605       3.89433993       1.65964504
H       -3.20064645       4.61870129       0.08872271
H       -7.69818309       3.54151565      -1.02129896
H       -7.01685858       3.47045380      -2.66306428
H       -6.63001683       2.21303855      -1.46738380
O       -6.04903556       2.92438809       0.85615202
O       -6.22260245       3.14495295       2.24197132
O        5.92676385       6.86534655      -2.53390426
O        5.16407711       6.96272584      -3.31424634
24
Properties=species:S:1:pos:R:3 energy=-2749.6783805932773 pbc="F F F"
O       -3.37417751       1.32187967       2.85549609
C       -2.46890609       1.41047368       2.11685135
C       -2.11075361       1.86385414       0.77805139
C       -3.29741536       2.45632674       0.01741863
C       -3.76372818       3.81003082       0.56495437
C       -5.25882850       4.04044253       0.33768644
H       -5.59062684       4.98548448       0.82903070
C       -5.62098446       4.09662596      -1.15593462
O       -4.97265718       4.79204745      -1.90203400
C       -6.79373476       3.28611629      -1.59227333
H       -5.58648044       2.46653160       2.60853131
H       -1.29538517       2.61049521       0.85561137
H       -1.68024782       1.00228996       0.21539755
H       -2.99035101       2.55499162      -1.03903155
H       -4.12393808       1.72034221       0.04907103
H       -3.55941288       3.90354197       1.64925239
H       -3.19621362       4.62544886       0.07375176
H       -7.69339853       3.53234438      -1.00589248
H       -7.02191250       3.45991424      -2.65247257
H       -6.62278215       2.20672460      -1.45665616
O       -6.03444513       2.92463067       0.85659393
O       -6.22789734       3.15618384       2.23827539
O        5.84579738       6.81824579      -2.47878820
O        5.06270982       6.89655329      -3.24146076
24
Properties=species:S:1:pos:R:3 energy=-2749.672666613717 pbc="F F F"
O       -3.33209608       1.33456892       2.84333662
C       -2.43148930       1.43092300       2.09876469
C       -2.09191315       1.87821528       0.75329159
C       -3.29198179       2.46269723       0.00781341
C       -3.75498762       3.81738292       0.55591995
C       -5.25136771       4.04442863       0.33642839
H       -5.58323351       4.98975755       0.82685566
C       -5.62027483       4.09505442      -1.15547488
O       -4.97828013       4.79088082      -1.90679594
C       -6.79214792       3.27869619      -1.58276855
H       -5.59268444       2.48362653       2.61700350
H       -1.28198269       2.63178644       0.81686074
H       -1.66697244       1.01458460       0.18932025
H       -2.99801070       2.55532349      -1.05255401
H       -4.11354287       1.72183797       0.05488378
H       -3.54525268       3.91276871       1.63884270
H       -3.19181179       4.63214407       0.05879997
H       -7.68859884       3.52318378      -0.99052068
H       -7.02695464       3.44938796      -2.64185487
H       -6.61555626       2.20041608      -1.44595491
O       -6.01973973       2.92487453       0.85719630
O       -6.23320860       3.16736549       2.23448486
O        5.76489342       6.77148529      -2.42425575
O        4.96142433       6.83013012      -3.16819280
24
Properties=species:S:1:pos:R:3 energy=-2749.666486935599 pbc="F F F"
O       -3.28987522       1.34721900       2.83111553
C       -2.39409818       1.45147789       2.08055505
C       -2.07318766       1.89260138       0.72854023
C       -3.28652189       2.46901102      -0.00172761
C       -3.74627429       3.82471066       0.54688214
C       -5.24391992       4.04839511       0.33515339
H       -5.57583996       4.99402335       0.82466474
C       -5.61960332       4.09349220      -1.15501235
O       -4.98393090       4.78968141      -1.91153522
C       -6.79055064       3.27128837      -1.57326481
H       -5.59897124       2.50078925       2.62543742
H       -1.26873307       2.65298561       0.77807061
H       -1.65374234       1.02689437       0.16329718
H       -3.00570468       2.55560092      -1.06593454
H       -4.10301503       1.72337286       0.06078584
H       -3.53110729       3.92201862       1.62841610
H       -3.18744265       4.63878583       0.04386915
H       -7.68378314       3.51403475      -0.97518549
H       -7.03198447       3.43887565      -2.63121091
H       -6.60833969       2.19411520      -1.43528137
O       -6.00490820       2.92512170       0.85798125
O       -6.23853420       3.17848770       2.23058090
O        5.68399497       6.72512208      -2.37045868
O        4.86030301       6.76341508      -3.09430852
24
Properties=species:S:1:pos:R:3 energy=-2749.659845095319 pbc="F F F"
O       -3.24749395       1.35982671       2.81882087
C       -2.35674916       1.47214763       2.06222055
C       -2.05458988       1.90701423       0.70380641
C       -3.28103089       2.47525717      -0.01119771
C       -3.73758994       3.83201358       0.53784130
C       -5.23648825       4.05233840       0.33385938
H       -5.56844793       4.99828115       0.82245887
C       -5.61896917       4.09194162      -1.15455048
O       -4.98961348       4.78844542      -1.91624798
C       -6.78894157       3.26389540      -1.56376308
H       -5.60534897       2.51802658       2.63383099
H       -1.25564784       2.67408746       0.73923922
H       -1.64056142       1.03921751       0.13733265
H       -3.01344077       2.55581915      -1.07916367
H       -4.09234719       1.72494980       0.06678224
H       -3.51697858       3.93129017       1.61797269
H       -3.18310789       4.64537304       0.02896112
H       -7.67895052       3.50489819      -0.95988884
H       -7.03700147       3.42837798      -2.62054046
H       -6.60113297       2.18782420      -1.42463688
O       -5.98993935       2.92537426       0.85897090
O       -6.24387210       3.18954026       2.22654467
O        5.60304504       6.67921320      -2.31754875
O        4.75942824       6.69636690      -3.01967396
24
Properties=species:S:1:pos:R:3 energy=-2749.6527803418953 pbc="F F F"
O       -3.20493132       1.37238886       2.80644068
C       -2.31945867       1.49294149       2.04375927
C       -2.03613251       1.92145560       0.67909919
C       -3.27550405       2.48142478      -0.02059016
C       -3.72893633       3.83929122       0.52879778
C       -5.22907584       4.05625492       0.33254427
H       -5.56105911       5.00253024       0.82023899
C       -5.61837161       4.09040495      -1.15409275
O       -4.99533187       4.78716903      -1.92093033
C       -6.78731937       3.25651986      -1.55426436
H       -5.61182576       2.53534530       2.64218217
H       -1.24273849       2.69508674       0.70036481
H       -1.62743355       1.05155228       0.11143096
H       -3.02122682       2.55597342      -1.09223190
H       -4.08153200       1.72657172       0.07287801
H       -3.50286839       3.94058185       1.60751256
H       -3.17880920       4.65190461       0.01407771
H       -7.67410008       3.49577499      -0.94463268
H       -7.04200511       3.41789565      -2.60984327
H       -6.59393665       2.18154527      -1.41402275
O       -5.97482202       2.92563424       0.86018738
O       -6.24922025       3.20051298       2.22235733
O        5.52198665       6.63381567      -2.26567773
O        4.65888237       6.62894434      -2.94415518
24
Properties=species:S:1:pos:R:3 energy=-2749.6453364487456 pbc="F F F"
O       -3.16216635       1.38490224       2.79396298
C       -2.28224316       1.51386872       2.02516931
C       -2.01782828       1.93592727       0.65442767
C       -3.26993659       2.48750290      -0.02989821
C       -3.72031522       3.84654312       0.51975194
C       -5.22168585       4.06014110       0.33120599
H       -5.55367524       5.00676990       0.81800600
C       -5.61780991       4.08888449      -1.15364259
O       -5.00109007       4.78584846      -1.92557838
C       -6.78568270       3.24916431      -1.54476964
H       -5.61840976       2.55275222       2.65048892
H       -1.23001654       2.71597819       0.66144562
H       -1.61436263       1.06389692       0.08559642
H       -3.02907064       2.55605894      -1.10512973
H       -4.07056210       1.72824156       0.07907819
H       -3.48877857       3.94989211       1.59703584
H       -3.17454829       4.65837945      -0.00077926
H       -7.66923094       3.48666607      -0.92941892
H       -7.04699486       3.40742935      -2.59911910
H       -6.58675124       2.17528065      -1.40344029
O       -5.95954503       2.92590371       0.86165280
O       -6.25457661       3.21139566       2.21800004
O        5.44076281       6.58898652      -2.21499737
O        4.55874779       6.56110613      -2.86761822
24
Properties=species:S:1:pos:R:3 energy=-2749.637526483954 pbc="F F F"
O       -3.11917809       1.39736365       2.78137583
C       -2.24511905       1.53493861       2.00644877
C       -1.99968990       1.95043104       0.62980092
C       -3.26432375       2.49348062      -0.03911513
C       -3.71172835       3.85376883       0.51070412
C       -5.21432140       4.06399336       0.32984246
H       -5.54629802       5.01099941       0.81576083
C       -5.61728329       4.08738254      -1.15320349
O       -5.00689208       4.78447989      -1.93018827
C       -6.78403022       3.24183131      -1.53527988
H       -5.62510911       2.57025414       2.65874917
H       -1.21749350       2.73675653       0.62247990
H       -1.60135256       1.07624968       0.05983334
H       -3.03698005       2.55607097      -1.11784767
H       -4.05943014       1.72996226       0.08538780
H       -3.47471097       3.95921942       1.58654263
H       -3.17032685       4.66479648      -0.01560796
H       -7.66434219       3.47757231      -0.91424951
H       -7.05197020       3.39697977      -2.58836770
H       -6.57957727       2.16903254      -1.39289082
O       -5.94409722       2.92618472       0.86338930
O       -6.25993916       3.22217810       2.21345397
O        5.35931652       6.54478279      -2.16565943
O        4.45910686       6.49281101      -2.78992913
24
Properties=species:S:1:pos:R:3 energy=-2749.629309615438 pbc="F F F"
O       -3.07594556       1.40976989       2.76866726
C       -2.20810278       1.55616041       1.98759573
C       -1.98173009       1.96496867       0.60522801
C       -3.25866078       2.49934702      -0.04823419
C       -3.70317749       3.86096787       0.50165468
C       -5.20698564       4.06780814       0.32845159
H       -5.53892919       5.01521805       0.81350442
C       -5.61679099       4.08590139      -1.15277889
O       -5.01274188       4.78305954      -1.93475611
C       -6.78236058       3.23452344      -1.52579609
H       -5.63193194       2.58785786       2.66696088
H       -1.20518088       2.75741653       0.58346587
H       -1.58840723       1.08860883       0.03414602
H       -3.04496289       2.55600472      -1.13037623
H       -4.04812876       1.73173676       0.09181187
H       -3.46066745       3.96856227       1.57603304
H       -3.16614657       4.67115459      -0.03040657
H       -7.65943293       3.46849463      -0.89912637
H       -7.05693060       3.38654759      -2.57758883
H       -6.57241529       2.16280317      -1.38237568
O       -5.92846739       2.92647933       0.86541899
O       -6.26530584       3.23285010       2.20870027
O        5.27759080       6.50126151      -2.11781569
O        4.36004196       6.42401772      -2.71095397
24
Properties=species:S:1:pos:R:3 energy=-2749.620627175159 pbc="F F F"
O       -3.03244776       1.42212060       2.75582165
C       -2.17120868       1.57754573       1.96860029
C       -1.96396135       1.97954166       0.58071149
C       -3.25294298       2.50509547      -0.05724714
C       -3.69466446       3.86813826       0.49260305
C       -5.19967956       4.07158318       0.32703167
H       -5.53156893       5.01942452       0.81123584
C       -5.61633301       4.08444033      -1.15236895
O       -5.01864424       4.78158258      -1.93927642
C       -6.78067221       3.22724254      -1.51631787
H       -5.63888653       2.60557112       2.67511739
H       -1.19309728       2.77794958       0.54440319
H       -1.57553161       1.10097535       0.00854063
H       -3.05302329       2.55585319      -1.14269814
H       -4.03664349       1.73357053       0.09835374
H       -3.44665048       3.97791967       1.56550474
H       -3.16201074       4.67745094      -0.04517321
H       -7.65450061       3.45943400      -0.88405111
H       -7.06187471       3.37613300      -2.56677998
H       -6.56526531       2.15659559      -1.37189605
O       -5.91264196       2.92679251       0.86776202
O       -6.27067448       3.24340144       2.20372254
O        5.19552190       6.45844280      -2.07155564
O        4.26163180       6.35471541      -2.63061371
24
Properties=species:S:1:pos:R:3 energy=-2749.6116264188586 pbc="F F F"
O       -2.98866336       1.43443129       2.74280286
C       -2.13443931       1.59911923       1.94940770
C       -1.94639496       1.99414986       0.55621732
C       -3.24716596       2.51074350      -0.06613715
C       -3.68619155       3.87526948       0.48354351
C       -5.19239219       4.07532362       0.32558294
H       -5.52420899       5.02361424       0.80894392
C       -5.61591348       4.08298189      -1.15195527
O       -5.02460817       4.78003861      -1.94373481
C       -6.77896226       3.21998643      -1.50683723
H       -5.64598196       2.62340685       2.68318625
H       -1.18130098       2.79832857       0.50529936
H       -1.56273677       1.11336558      -0.01696642
H       -3.06114471       2.55559672      -1.15475258
H       -4.02492009       1.73548335       0.10500720
H       -3.43266603       3.98729367       1.55494192
H       -3.15793164       4.68367294      -0.05990563
H       -7.64953334       3.45039187      -0.86902357
H       -7.06679651       3.36573349      -2.55592610
H       -6.55812454       2.15041756      -1.36145246
O       -5.89659372       2.92714565       0.87042750
O       -6.27604216       3.25382188       2.19851794
O        5.11300814       6.41614040      -2.02662049
O        4.16393456       6.28506334      -2.54913669
24
Properties=species:S:1:pos:R:3 energy=-2749.60264157866 pbc="F F F"
O       -2.94457093       1.44672300       2.72956761
C       -2.09779316       1.62091014       1.92994760
C       -1.92904177       2.00879254       0.53169874
C       -3.24132549       2.51631700      -0.07488448
C       -3.67776120       3.88234803       0.47446855
C       -5.18510839       4.07903717       0.32410633
H       -5.51683813       5.02778150       0.80661391
C       -5.61553799       4.08150274      -1.15151301
O       -5.03064415       4.77841526      -1.94811379
C       -6.77722746       3.21275153      -1.49734350
H       -5.65322760       2.64137983       2.69112604
H       -1.16986404       2.81851989       0.46616460
H       -1.55003589       1.12580118      -0.04235509
H       -3.06930347       2.55521128      -1.16646360
H       -4.01289047       1.73749995       0.11176277
H       -3.41872126       3.99668739       1.54432402
H       -3.15392465       4.68980456      -0.07460147
H       -7.64451599       3.44136986      -0.85404293
H       -7.07168837       3.35534555      -2.54500774
H       -6.55098920       2.14427849      -1.35104522
O       -5.88029072       2.92756580       0.87342073
O       -6.28140570       3.26410115       2.19308838
O        5.02993472       6.37409625      -1.98263034
O        4.06700133       6.21527991      -2.46685809
24
Properties=species:S:1:pos:R:3 energy=-2749.5940381804085 pbc="F F F"
O       -2.90014905       1.45901678       2.71607263
C       -2.06126869       1.64294765       1.91014966
C       -1.91191262       2.02346899       0.50710897
C       -3.23541730       2.52184189      -0.08346934
C       -3.66937583       3.88936041       0.46537064
C       -5.17781301       4.08273155       0.32260277
H       -5.50944515       5.03192058       0.80423106
C       -5.61521214       4.07997957      -1.15101730
O       -5.03676267       4.77670016      -1.95239587
C       -6.77546450       3.20553426      -1.48782603
H       -5.66063279       2.65950480       2.69889534
H       -1.15885855       2.83848996       0.42700916
H       -1.53744217       1.13830381      -0.06760539
H       -3.07747586       2.55467281      -1.17775524
H       -4.00048653       1.73964508       0.11861093
H       -3.40482334       4.00610394       1.53363050
H       -3.15000517       4.69582980      -0.08925835
H       -7.63943344       3.43236959      -0.83910841
H       -7.07654264       3.34496571      -2.53400545
H       -6.54385553       2.13818777      -1.34067461
O       -5.86370104       2.92808006       0.87674698
O       -6.28676191       3.27422899       2.18743575
O        4.94618678       6.33205224      -1.93920516
O        3.97088317       6.14558359      -2.38411321
24
Properties=species:S:1:pos:R:3 energy=-2749.5860443680353 pbc="F F F"
O       -2.85537631       1.47133367       2.70227464
C       -2.02486437       1.66526099       1.88994352
C       -1.89501837       2.03817849       0.48240124
C       -3.22943714       2.52734409      -0.09187196
C       -3.66103788       3.89629313       0.45624227
C       -5.17049091       4.08641447       0.32107320
H       -5.50201881       5.03602579       0.80178060
C       -5.61494150       4.07838906      -1.15044332
O       -5.04297423       4.77488094      -1.95656356
C       -6.77367011       3.19833104      -1.47827415
H       -5.66820691       2.67779653       2.70645273
H       -1.14835657       2.85820518       0.38784327
H       -1.52496878       1.15089517      -0.09269727
H       -3.08563815       2.55395729      -1.18855151
H       -3.98764019       1.74194347       0.12554217
H       -3.39097945       4.01554644       1.52284081
H       -3.14618857       4.70173263      -0.10387392
H       -7.63427055       3.42339267      -0.82421920
H       -7.08135171       3.33459047      -2.52289979
H       -6.53671975       2.13215481      -1.33034094
O       -5.84679273       2.92871549       0.88041152
O       -6.29210761       3.28419512       2.18156195
O        4.86164949       6.28975026      -1.89596495
O        3.87563113       6.07619284      -2.30123734
24
Properties=species:S:1:pos:R:3 energy=-2749.578624876528 pbc="F F F"
O       -2.81023126       1.48369471       2.68813035
C       -1.98857868       1.68787936       1.86925882
C       -1.87836986       2.05292031       0.45752877
C       -3.22338077       2.53284949      -0.10007256
C       -3.65274979       3.90313268       0.44707592
C       -5.16312694       4.09009366       0.31951855
H       -5.49454789       5.04009140       0.79924779
C       -5.61473168       4.07670788      -1.14976620
O       -5.04928930       4.77294525      -1.96059935
C       -6.77184099       3.19113827      -1.46867721
H       -5.67595931       2.69626977       2.71375678
H       -1.13843019       2.87763194       0.34867716
H       -1.51262890       1.16359690      -0.11761074
H       -3.09376665       2.55304067      -1.19877646
H       -3.97428333       1.74441988       0.13254699
H       -3.37719676       4.02501801       1.51193442
H       -3.14249025       4.70749706      -0.11844579
H       -7.62901221       3.41444071      -0.80937451
H       -7.08610792       3.32421635      -2.51167130
H       -6.52957809       2.12618899      -1.32004450
O       -5.82953385       2.92949918       0.88441964
O       -6.29743961       3.29398927       2.17546890
O        4.77620800       6.24693217      -1.85252967
O        3.78129627       6.00732612      -2.21856577
24
Properties=species:S:1:pos:R:3 energy=-2749.571444537605 pbc="F F F"
O       -2.76469282       1.49612079       2.67359694
C       -1.95241029       1.71083148       1.84802608
C       -1.86197781       2.06769373       0.43244553
C       -3.21724388       2.53838368      -0.10805168
C       -3.64451395       3.90986571       0.43786417
C       -5.15570616       4.09377667       0.31793974
H       -5.48702133       5.04411175       0.79661807
C       -5.61458816       4.07491299      -1.14896139
O       -5.05571824       4.77088088      -1.96448597
C       -6.76997390       3.18395244      -1.45902470
H       -5.68389923       2.71493910       2.72076648
H       -1.12915055       2.89673707       0.30952107
H       -1.50043554       1.17643042      -0.14232602
H       -3.10183787       2.55189925      -1.20835507
H       -3.96034879       1.74709875       0.13961587
H       -3.36348235       4.03452167       1.50089104
H       -3.13892538       4.71310730      -0.13297164
H       -7.62364348       3.40551530      -0.79457352
H       -7.09080376       3.31383989      -2.50030080
H       -6.52242681       2.12029962      -1.30978556
O       -5.81189304       2.93045805       0.88877657
O       -6.30275457       3.30360121       2.16915846
O        4.68974866       6.20334273      -1.80852361
O        3.68792926       5.93919952      -2.13643004
24
Properties=species:S:1:pos:R:3 energy=-2749.564055284245 pbc="F F F"
O       -2.71875886       1.50862378       2.65865833
C       -1.91636956       1.73411595       1.82622793
C       -1.84584447       2.08249813       0.40714958
C       -3.21102026       2.54395224      -0.11580737
C       -3.63633037       3.91648764       0.42860545
C       -5.14822573       4.09746190       0.31633707
H       -5.47943702       5.04808454       0.79388927
C       -5.61451038       4.07299704      -1.14802215
O       -5.06226214       4.76868628      -1.96821946
C       -6.76806779       3.17677344      -1.44931457
H       -5.69202865       2.73380732       2.72746554
H       -1.12053188       2.91551130       0.27038534
H       -1.48838975       1.18940161      -0.16683839
H       -3.10984227       2.55053021      -1.21726939
H       -3.94582400       1.74998826       0.14673773
H       -3.34983793       4.04405583       1.48970655
H       -3.13549624       4.71856224      -0.14745090
H       -7.61816121       3.39661646      -0.77981464
H       -7.09543766       3.30345953      -2.48878476
H       -6.51526478       2.11448943      -1.29956284
O       -5.79387323       2.93161061       0.89348512
O       -6.30803994       3.31302206       2.16263131