24
Properties=species:S:1:pos:R:3:momenta:R:3:forces:R:3 pbc="F F F"
O       -1.72096171       2.59687618       3.80409836       2.10143501       2.03459719       0.62833458       0.06054544       0.02796486       0.00232740
C       -1.71196627       2.41255812       2.62108376       0.95331349       1.65969941      -1.31766559      -1.11555740      -1.22466689       0.67830607
C       -2.42811943       1.41705913       1.76769615      -0.97495688       1.01384837      -0.75625198       0.00189809      -0.02212327      -0.00429536
C       -3.92169612       1.74849413       1.63717423      -0.21103501      -0.39922423      -0.67869496      -0.00122975       0.01180945       0.00522845
C       -4.15607809       3.23523162       1.33978894      -0.57313147       0.62199690       0.04900275       0.01736257       0.01322040       0.01399855
C       -5.44337974       3.50671477       0.56595133      -0.07394560       0.66893405       0.44162773       0.01696042      -0.04026858       0.00726761
H       -5.63180060       4.60644400       0.48217304      -0.10524960       0.10809039      -0.13282096       0.01383771      -0.07475725       0.01448317
C       -5.46238328       2.87411803      -0.84799906      -0.61747122       0.17905467       0.91829134      -0.03994944       0.03069050      -0.00081628
O       -4.47733120       2.37546931      -1.33447570      -0.02118011      -0.13862463      -0.75659889      -0.04196506       0.04428307       0.02057610
C       -6.77926840       2.97926421      -1.54193336       0.58836499       0.12569480      -0.33480679      -0.03038837       0.02470648      -0.03995485
H       -6.83410120       3.39261542       3.00910818      -0.11702163      -0.03045341      -0.26805871      -0.00583093       0.00961968      -0.00770107
H       -1.96456398       1.39245391       0.74888606      -0.25268961       0.06961890      -0.14124582      -0.00337290       0.00386721      -0.03296518
H       -2.30821557       0.39118287       2.17006563       0.16178393      -0.06157184      -0.23771161       0.05641680      -0.01277572       0.08126206
H       -4.34215047       1.12168601       0.82138661      -0.02274515      -0.08482221      -0.26147925      -0.00044728      -0.00048797      -0.01625075
H       -4.47208716       1.45444324       2.55159801      -0.15356798       0.18174986      -0.26806691       0.03665522       0.00580661       0.02632112
H       -4.17279259       3.79920670       2.29397196       0.13069469       0.38715169      -0.05429884      -0.01309005       0.05926654      -0.02220533
H       -3.30054934       3.64221818       0.75307571      -0.05099848      -0.04756118      -0.24956508      -0.03110335       0.00531508      -0.02820437
H       -6.81966065       3.88291874      -2.16567396       0.14923615       0.09844298      -0.01782185      -0.01544231       0.03643232      -0.04547143
H       -6.95730352       2.12799480      -2.21373129       0.08879520      -0.09495063      -0.22175714       0.01160567      -0.03050428      -0.01413221
H       -7.62740689       3.03825509      -0.83785087       0.10465140      -0.02655826       0.14793178       0.00319142      -0.03567418       0.00254176
O       -6.58843469       2.88629539       1.22001511      -0.31953340       0.70522272       0.26884464       0.04247910      -0.02533886       0.04389806
O       -7.10290451       3.82844689       2.14333495       0.99144221       0.42204428      -0.02051538       0.02187335       0.04281441      -0.01416367
O       -0.71343350       3.18027641       0.72215441      -1.28554883      -0.92772346       1.15903954      -0.02088826       0.02716456      -0.02238365
O       -0.89190739       3.38641462       1.90683099      -2.25404533      -2.28110055       2.39545260       1.03643931       1.12363582      -0.64766620
