22
Properties=species:S:1:pos:R:3 energy=-13593.431378181878 pbc="F F F"
C        5.65052500      -4.49332000       0.95675000
C        6.72986500      -4.37290000      -0.12998100
C        6.62338600      -5.50204500      -1.10508200
C        5.96605200      -5.42754500      -2.26640800
C        4.63065700      -3.38849900       2.99094800
C        5.78313200      -3.39255000       2.01355300
H        4.64004400      -4.45373600       0.50010800
H        5.70627900      -5.48790600       1.44206200
H        6.64572900      -3.39365500      -0.64259500
H        7.73916100      -4.38003500       0.33131800
H        7.12167700      -6.42848300      -0.81804900
H        5.77756800      -8.21550500      -2.47213900
C        5.22662100      -4.29705100      -2.89182400
H        4.77388600      -2.74105500       3.87283200
H        6.74141500      -3.50086800       2.56072600
H        5.83716800      -2.39631300       1.52530400
H        4.42113900      -3.93895000      -2.23345200
H        4.76453200      -4.58759200      -3.85031800
H        5.89964300      -3.45231400      -3.10112500
O        3.61472800      -4.02741800       2.83807900
O        6.54777000      -7.62969300      -2.74289800
O        5.83626700      -6.48269200      -3.18834000
