 Entering Gaussian System, Link 0=g09
 Initial command:
 /apps/applications/gaussian/G09.D01/2/default/g09/l1.exe "/nobackup/chmrsh/Scratch/Gau-98792.inp" -scrdir="/nobackup/chmrsh/Scratch/"
 Entering Link 1 = /apps/applications/gaussian/G09.D01/2/default/g09/l1.exe PID=     98793.
  
 Copyright (c) 1988,1990,1992,1993,1995,1998,2003,2009,2013,
            Gaussian, Inc.  All Rights Reserved.
  
 This is part of the Gaussian(R) 09 program.  It is based on
 the Gaussian(R) 03 system (copyright 2003, Gaussian, Inc.),
 the Gaussian(R) 98 system (copyright 1998, Gaussian, Inc.),
 the Gaussian(R) 94 system (copyright 1995, Gaussian, Inc.),
 the Gaussian 92(TM) system (copyright 1992, Gaussian, Inc.),
 the Gaussian 90(TM) system (copyright 1990, Gaussian, Inc.),
 the Gaussian 88(TM) system (copyright 1988, Gaussian, Inc.),
 the Gaussian 86(TM) system (copyright 1986, Carnegie Mellon
 University), and the Gaussian 82(TM) system (copyright 1983,
 Carnegie Mellon University). Gaussian is a federally registered
 trademark of Gaussian, Inc.
  
 This software contains proprietary and confidential information,
 including trade secrets, belonging to Gaussian, Inc.
  
 This software is provided under written license and may be
 used, copied, transmitted, or stored only in accord with that
 written license.
  
 The following legend is applicable only to US Government
 contracts under FAR:
  
                    RESTRICTED RIGHTS LEGEND
  
 Use, reproduction and disclosure by the US Government is
 subject to restrictions as set forth in subparagraphs (a)
 and (c) of the Commercial Computer Software - Restricted
 Rights clause in FAR 52.227-19.
  
 Gaussian, Inc.
 340 Quinnipiac St., Bldg. 40, Wallingford CT 06492
  
  
 ---------------------------------------------------------------
 Warning -- This program may not be used in any manner that
 competes with the business of Gaussian, Inc. or will provide
 assistance to any competitor of Gaussian, Inc.  The licensee
 of this program is prohibited from giving any competitor of
 Gaussian, Inc. access to this program.  By using this program,
 the user acknowledges that Gaussian, Inc. is engaged in the
 business of creating and licensing software in the field of
 computational chemistry and represents and warrants to the
 licensee that it is not a competitor of Gaussian, Inc. and that
 it will not use this program in any manner prohibited above.
 ---------------------------------------------------------------
  

 Cite this work as:
 Gaussian 09, Revision D.01,
 M. J. Frisch, G. W. Trucks, H. B. Schlegel, G. E. Scuseria, 
 M. A. Robb, J. R. Cheeseman, G. Scalmani, V. Barone, B. Mennucci, 
 G. A. Petersson, H. Nakatsuji, M. Caricato, X. Li, H. P. Hratchian, 
 A. F. Izmaylov, J. Bloino, G. Zheng, J. L. Sonnenberg, M. Hada, 
 M. Ehara, K. Toyota, R. Fukuda, J. Hasegawa, M. Ishida, T. Nakajima, 
 Y. Honda, O. Kitao, H. Nakai, T. Vreven, J. A. Montgomery, Jr., 
 J. E. Peralta, F. Ogliaro, M. Bearpark, J. J. Heyd, E. Brothers, 
 K. N. Kudin, V. N. Staroverov, T. Keith, R. Kobayashi, J. Normand, 
 K. Raghavachari, A. Rendell, J. C. Burant, S. S. Iyengar, J. Tomasi, 
 M. Cossi, N. Rega, J. M. Millam, M. Klene, J. E. Knox, J. B. Cross, 
 V. Bakken, C. Adamo, J. Jaramillo, R. Gomperts, R. E. Stratmann, 
 O. Yazyev, A. J. Austin, R. Cammi, C. Pomelli, J. W. Ochterski, 
 R. L. Martin, K. Morokuma, V. G. Zakrzewski, G. A. Voth, 
 P. Salvador, J. J. Dannenberg, S. Dapprich, A. D. Daniels, 
 O. Farkas, J. B. Foresman, J. V. Ortiz, J. Cioslowski, 
 and D. J. Fox, Gaussian, Inc., Wallingford CT, 2013.
 
 ******************************************
 Gaussian 09:  ES64L-G09RevD.01 24-Apr-2013
                 6-Jan-2021 
 ******************************************
 ----------------------------------------------------------------------
 #P b3lyp/3-21G scf=qc opt(calcall, ts, noeigentest, cartesian,maxcycle
 =100) NoSymm
 ----------------------------------------------------------------------
 1/5=1,6=100,10=4,11=1,14=-1,18=10,26=3,38=1/1,3;
 2/12=2,15=1,17=6,18=5,29=2,40=1/2;
 3/5=5,11=2,16=1,25=1,30=1,71=2,74=-5,140=1/1,2,3;
 4//1;
 5/5=2,8=3,38=5/8;
 8/6=4,10=90,11=11/1;
 11/6=1,8=1,9=11,15=111,16=1,31=1/1,2,10;
 10/6=1,31=1/2;
 6/7=2,8=2,9=2,10=2,18=1,28=1/1;
 7/7=1,10=1,25=1,30=1/1,2,3,16;
 1/5=1,6=100,10=4,11=1,14=-1,18=10,26=3/3(3);
 2/15=1,29=1/2;
 7/7=1,8=1,9=1,25=1,30=1,44=-1/16;
 99/12=1/99;
 2/15=1,29=1/2;
 3/5=5,11=2,16=1,25=1,30=1,71=2,74=-5,140=1/1,2,3;
 4/5=5,16=3,69=1/1;
 5/5=2,8=3,38=5/8;
 8/6=4,10=90,11=11/1;
 11/6=1,8=1,9=11,15=111,16=1,31=1/1,2,10;
 10/6=1,31=1/2;
 7/7=1,10=1,25=1,30=1/1,2,3,16;
 1/5=1,6=100,10=4,11=1,14=-1,18=10,26=3/3(-8);
 2/15=1,29=1/2;
 6/7=2,8=2,9=2,10=2,18=1,19=2,28=1/1;
 7/7=1,8=1,9=1,25=1,30=1,44=-1/16;
 99/12=1/99;
 Leave Link    1 at Wed Jan  6 07:03:23 2021, MaxMem=           0 cpu:         0.0
 (Enter /apps/applications/gaussian/G09.D01/2/default/g09/l101.exe)
 ------------------------------
 Gaussian input prepared by ASE
 ------------------------------
 Symbolic Z-matrix:
 Charge =  0 Multiplicity = 2
 C                    -3.81563  -0.98839   6.55397 
 C                    -4.2474    0.31687   6.94738 
 H                    -4.05768  -1.18869   5.49377 
 H                    -4.32562  -1.77437   7.14784 
 H                    -2.7294   -1.12565   6.68758 
 C                    -4.60258   1.46237   7.26221 
 H                    -4.88785   2.4066    7.56519 
 O                    -6.40796   0.40332   6.76948 
 H                    -6.57314   0.79346   5.89642 
 
 NAtoms=      9 NQM=        9 NQMF=       0 NMMI=      0 NMMIF=      0
                NMic=       0 NMicF=      0.
                    Isotopes and Nuclear Properties:
 (Nuclear quadrupole moments (NQMom) in fm**2, nuclear magnetic moments (NMagM)
  in nuclear magnetons)

  Atom         1           2           3           4           5           6           7           8           9
 IAtWgt=          12          12           1           1           1          12           1          16           1
 AtmWgt=  12.0000000  12.0000000   1.0078250   1.0078250   1.0078250  12.0000000   1.0078250  15.9949146   1.0078250
 NucSpn=           0           0           1           1           1           0           1           0           1
 AtZEff=   0.0000000   0.0000000   0.0000000   0.0000000   0.0000000   0.0000000   0.0000000   0.0000000   0.0000000
 NQMom=    0.0000000   0.0000000   0.0000000   0.0000000   0.0000000   0.0000000   0.0000000   0.0000000   0.0000000
 NMagM=    0.0000000   0.0000000   2.7928460   2.7928460   2.7928460   0.0000000   2.7928460   0.0000000   2.7928460
 AtZNuc=   6.0000000   6.0000000   1.0000000   1.0000000   1.0000000   6.0000000   1.0000000   8.0000000   1.0000000
 Leave Link  101 at Wed Jan  6 07:03:23 2021, MaxMem=    33554432 cpu:         0.2
 (Enter /apps/applications/gaussian/G09.D01/2/default/g09/l103.exe)

 GradGradGradGradGradGradGradGradGradGradGradGradGradGradGradGradGradGrad
 Berny optimization.
 Initialization pass.
 No Z-matrix variables, so optimization will use Cartesian coordinates.
 Trust Radius=3.00D-01 FncErr=1.00D-07 GrdErr=1.00D-06
 Number of steps in this run=    100 maximum allowed number of steps=    100.
 Search for a saddle point of order  1.
 GradGradGradGradGradGradGradGradGradGradGradGradGradGradGradGradGradGrad

 Leave Link  103 at Wed Jan  6 07:03:24 2021, MaxMem=    33554432 cpu:         0.0
 (Enter /apps/applications/gaussian/G09.D01/2/default/g09/l202.exe)
 ---------------------------------------------------------------------------------------------------
                            Z-MATRIX (ANGSTROMS AND DEGREES)
   CD    Cent   Atom    N1       Length/X        N2       Alpha/Y        N3        Beta/Z          J
 ---------------------------------------------------------------------------------------------------
      1      1  C        0  -3.815626         -0.988390          6.553966
      2      2  C        0  -4.247398          0.316869          6.947385
      3      3  H        0  -4.057682         -1.188687          5.493773
      4      4  H        0  -4.325625         -1.774372          7.147841
      5      5  H        0  -2.729397         -1.125649          6.687581
      6      6  C        0  -4.602576          1.462367          7.262208
      7      7  H        0  -4.887849          2.406605          7.565187
      8      8  O        0  -6.407958          0.403320          6.769480
      9      9  H        0  -6.573144          0.793462          5.896419
 ---------------------------------------------------------------------------------------------------
                         Z-Matrix orientation:                         
 ---------------------------------------------------------------------
 Center     Atomic      Atomic             Coordinates (Angstroms)
 Number     Number       Type             X           Y           Z
 ---------------------------------------------------------------------
      1          6           0       -3.815626   -0.988390    6.553966
      2          6           0       -4.247398    0.316869    6.947385
      3          1           0       -4.057682   -1.188687    5.493773
      4          1           0       -4.325625   -1.774372    7.147841
      5          1           0       -2.729397   -1.125649    6.687581
      6          6           0       -4.602576    1.462367    7.262208
      7          1           0       -4.887849    2.406605    7.565187
      8          8           0       -6.407958    0.403320    6.769480
      9          1           0       -6.573144    0.793462    5.896419
 ---------------------------------------------------------------------
                    Distance matrix (angstroms):
                    1          2          3          4          5
     1  C    0.000000
     2  C    1.430002   0.000000
     3  H    1.105766   2.101352   0.000000
     4  H    1.109303   2.102282   1.775038   0.000000
     5  H    1.102990   2.110138   1.787035   1.783431   0.000000
     6  C    2.669665   1.239932   3.233011   3.250578   3.246048
     7  H    3.701111   2.271311   4.231555   4.239202   4.231539
     8  O    2.950167   2.169595   3.112188   3.036710   3.984503
     9  H    3.348323   2.596298   3.227783   3.634717   4.368445
                    6          7          8          9
     6  C    0.000000
     7  H    1.031873   0.000000
     8  O    2.150294   2.637618   0.000000
     9  H    2.489167   2.868316   0.970430   0.000000
 Symmetry turned off by external request.
 Stoichiometry    C3H5O(2)
 Framework group  C1[X(C3H5O)]
 Deg. of freedom    21
 Full point group                 C1      NOp   1
 Rotational constants (GHZ):     12.4018122      6.0804289      4.2448536
 Leave Link  202 at Wed Jan  6 07:03:24 2021, MaxMem=    33554432 cpu:         0.0
 (Enter /apps/applications/gaussian/G09.D01/2/default/g09/l301.exe)
 Standard basis: 3-21G (6D, 7F)
 Ernie: Thresh=  0.10000D-02 Tol=  0.10000D-05 Strict=F.
    46 basis functions,    75 primitive gaussians,    46 cartesian basis functions
    16 alpha electrons       15 beta electrons
       nuclear repulsion energy       104.4716395376 Hartrees.
 IExCor=  402 DFT=T Ex+Corr=B3LYP ExCW=0 ScaHFX=  0.200000
 ScaDFX=  0.800000  0.720000  1.000000  0.810000 ScalE2=  1.000000  1.000000
 IRadAn=      0 IRanWt=     -1 IRanGd=            0 ICorTp=0 IEmpDi=  4
 NAtoms=    9 NActive=    9 NUniq=    9 SFac= 1.00D+00 NAtFMM=   60 NAOKFM=F Big=F
 Integral buffers will be    131072 words long.
 Raffenetti 2 integral format.
 Two-electron integral symmetry is turned off.
 Leave Link  301 at Wed Jan  6 07:03:24 2021, MaxMem=    33554432 cpu:         0.1
 (Enter /apps/applications/gaussian/G09.D01/2/default/g09/l302.exe)
 NPDir=0 NMtPBC=     1 NCelOv=     1 NCel=       1 NClECP=     1 NCelD=      1
         NCelK=      1 NCelE2=     1 NClLst=     1 CellRange=     0.0.
 One-electron integrals computed using PRISM.
 NBasis=    46 RedAO= T EigKep=  1.42D-03  NBF=    46
 NBsUse=    46 1.00D-06 EigRej= -1.00D+00 NBFU=    46
 Precomputing XC quadrature grid using
 IXCGrd= 4 IRadAn=           0 IRanWt=          -1 IRanGd=           0 AccXCQ= 0.00D+00.
 Generated NRdTot=       0 NPtTot=           0 NUsed=           0 NTot=          32
 NSgBfM=    46    46    46    46    46 MxSgAt=     9 MxSgA2=     9.
 Leave Link  302 at Wed Jan  6 07:03:24 2021, MaxMem=    33554432 cpu:         0.2
 (Enter /apps/applications/gaussian/G09.D01/2/default/g09/l303.exe)
 DipDrv:  MaxL=1.
 Leave Link  303 at Wed Jan  6 07:03:24 2021, MaxMem=    33554432 cpu:         0.1
 (Enter /apps/applications/gaussian/G09.D01/2/default/g09/l401.exe)
 ExpMin= 1.83D-01 ExpMax= 3.22D+02 ExpMxC= 3.22D+02 IAcc=1 IRadAn=         1 AccDes= 0.00D+00
 Harris functional with IExCor=  402 and IRadAn=       1 diagonalized for initial guess.
 HarFok:  IExCor=  402 AccDes= 0.00D+00 IRadAn=         1 IDoV= 1 UseB2=F ITyADJ=14
 ICtDFT=  3500011 ScaDFX=  1.000000  1.000000  1.000000  1.000000
 FoFCou: FMM=F IPFlag=           0 FMFlag=      100000 FMFlg1=           0
         NFxFlg=           0 DoJE=T BraDBF=F KetDBF=T FulRan=T
         wScrn=  0.000000 ICntrl=     500 IOpCl=  0 I1Cent=   200000004 NGrid=           0
         NMat0=    1 NMatS0=      1 NMatT0=    0 NMatD0=    1 NMtDS0=    0 NMtDT0=    0
 Symmetry not used in FoFCou.
 Harris En= -191.335410861400    
 JPrj=0 DoOrth=F DoCkMO=F.
 Initial guess <Sx>= 0.0000 <Sy>= 0.0000 <Sz>= 0.5000 <S**2>= 0.7500 S= 0.5000
 Leave Link  401 at Wed Jan  6 07:03:24 2021, MaxMem=    33554432 cpu:         0.3
 (Enter /apps/applications/gaussian/G09.D01/2/default/g09/l508.exe)
 Direct SCF.
 Tight linear equation convergence will be used.
 UB3LYP wavefunction.
 Quadratic Convergence SCF Method.
 Line search only if initial step raises energy.
 Two-electron integral symmetry not used.
 ReadGW:  IGet=1 IStart=         402 Next=         402 LGW=           0.
 Keep R1 and R2 ints in memory in canonical form, NReq=2054730.
 FoFCou: FMM=F IPFlag=           0 FMFlag=           0 FMFlg1=           0
         NFxFlg=           0 DoJE=F BraDBF=F KetDBF=F FulRan=T
         wScrn=  0.000000 ICntrl=     600 IOpCl=  0 I1Cent=           0 NGrid=           0
         NMat0=    1 NMatS0=   1081 NMatT0=    0 NMatD0=    1 NMtDS0=    0 NMtDT0=    0
 Symmetry not used in FoFCou.
 Iteration   1 EE= -191.196756377287                                    Grad=5.020D-01 Max rot=    6.2935 deg.
 Gradient too large for Newton-Raphson -- use scaled steepest descent instead.
 Alpha Gap=     0.133 HL deriv= 9.97D-03
  Beta Gap=     0.126 HL deriv= 6.12D-02
     ILin= 1 X=0.000D+00 Y=-1.911967563773D+02 DE= 0.00D+00 F= -6.00D-01
     ILin= 2 X=3.000D-01 Y=-1.913027719309D+02 DE=-1.06D-01 F= -1.03D-01
     ILin= 3 X=4.000D-01 Y=-1.913046994351D+02 DE=-1.08D-01 F=  6.43D-02
     Accept linear search using points  2 and  3.
     An  expanding polynomial of degree  3 produced  0.3459
 Iteration   2 EE= -191.305736413262     Delta-E=       -0.108980035975 Grad=1.618D-01 Max rot=    1.7208 deg.
 Gradient too large for Newton-Raphson -- use scaled steepest descent instead.
 Alpha Gap=     0.264 HL deriv= 4.87D-03
  Beta Gap=     0.191 HL deriv= 1.01D-03
     ILin= 1 X=0.000D+00 Y=-1.913057364133D+02 DE= 0.00D+00 F= -4.84D-02
     ILin= 2 X=3.000D-01 Y=-1.913159424229D+02 DE=-1.02D-02 F= -1.97D-02
     ILin= 3 X=5.000D-01 Y=-1.913179985146D+02 DE=-1.23D-02 F= -8.84D-04
     ILin= 4 X=9.000D-01 Y=-1.913109359274D+02 DE=-5.20D-03 F=  3.60D-02
     An  expanding polynomial of degree  4 produced  0.5095
     Minimum is close to point  3 DX=  9.48D-03 DF= -4.20D-06 DXR=  1.86D-02 DFR=  3.43D-04 which will be used.
 Iteration   3 EE= -191.317998514573     Delta-E=       -0.012262101310 Grad=5.828D-02 Max rot=    1.3697 deg.
 Gradient too large for Newton-Raphson -- use scaled steepest descent instead.
 Alpha Gap=     0.234 HL deriv= 5.32D-04
  Beta Gap=     0.184 HL deriv= 1.22D-02
     ILin= 1 X=0.000D+00 Y=-1.913179985146D+02 DE= 0.00D+00 F= -8.71D-03
     ILin= 2 X=4.000D-01 Y=-1.913201694400D+02 DE=-2.17D-03 F= -2.18D-03
     ILin= 3 X=7.000D-01 Y=-1.913201090168D+02 DE=-2.11D-03 F=  2.56D-03
     An  expanding polynomial of degree  3 produced  0.5375
 Iteration   4 EE= -191.320318424477     Delta-E=       -0.002319909904 Grad=4.112D-02 Max rot=    0.5981 deg.
 Gradient too large for Newton-Raphson -- use scaled steepest descent instead.
 Alpha Gap=     0.257 HL deriv= 2.25D-03
  Beta Gap=     0.190 HL deriv= 2.31D-03
     ILin= 1 X=0.000D+00 Y=-1.913203184245D+02 DE= 0.00D+00 F= -3.10D-03
     ILin= 2 X=5.000D-01 Y=-1.913210990281D+02 DE=-7.81D-04 F= -3.44D-05
     Reject lnstep minimum 5.966D-01 FVal=-1.913211038022D+02 Lims=  0.00D+00  5.00D-01
     ILin= 3 X=1.000D+00 Y=-1.913203611911D+02 DE=-4.28D-05 F=  2.98D-03
     An  expanding polynomial of degree  3 produced  0.5070
     Minimum is close to point  2 DX=  7.04D-03 DF= -1.51D-07 DXR=  1.39D-02 DFR=  1.93D-04 which will be used.
 Iteration   5 EE= -191.321099028128     Delta-E=       -0.000780603651 Grad=1.750D-02 Max rot=    0.4661 deg.
 Gradient too large for Newton-Raphson -- use scaled steepest descent instead.
 Alpha Gap=     0.249 HL deriv= 1.93D-04
  Beta Gap=     0.191 HL deriv= 5.10D-03
     ILin= 1 X=0.000D+00 Y=-1.913210990281D+02 DE= 0.00D+00 F= -1.07D-03
     ILin= 2 X=5.000D-01 Y=-1.913213840676D+02 DE=-2.85D-04 F= -6.85D-05
     Reject lnstep minimum 5.996D-01 FVal=-1.913213925796D+02 Lims=  0.00D+00  5.00D-01
     ILin= 3 X=1.000D+00 Y=-1.913211686876D+02 DE=-6.97D-05 F=  9.29D-04
     An  expanding polynomial of degree  3 produced  0.5348
     Minimum is close to point  2 DX=  3.48D-02 DF= -1.21D-06 DXR=  6.51D-02 DFR=  4.25D-03 which will be used.
 Iteration   6 EE= -191.321384067573     Delta-E=       -0.000285039445 Grad=1.286D-02 Max rot=    0.1774 deg.
 Gradient too large for Newton-Raphson -- use scaled steepest descent instead.
 Alpha Gap=     0.254 HL deriv= 1.01D-03
  Beta Gap=     0.192 HL deriv= 1.94D-03
     ILin= 1 X=0.000D+00 Y=-1.913213840676D+02 DE= 0.00D+00 F= -4.54D-04
     ILin= 2 X=5.000D-01 Y=-1.913215015738D+02 DE=-1.18D-04 F= -1.65D-05
     Reject lnstep minimum 6.170D-01 FVal=-1.913215041918D+02 Lims=  0.00D+00  5.00D-01
     ILin= 3 X=1.000D+00 Y=-1.913214005307D+02 DE=-1.65D-05 F=  4.21D-04
     An  expanding polynomial of degree  3 produced  0.5188
     Minimum is close to point  2 DX=  1.88D-02 DF= -1.55D-07 DXR=  3.63D-02 DFR=  1.32D-03 which will be used.
 Iteration   7 EE= -191.321501573785     Delta-E=       -0.000117506212 Grad=7.625D-03 Max rot=    0.1613 deg.
 QCNR:  CnvC1=3.07D-09 CnvC2=3.07D-08
 LinEq1:  Iter=  0 NonCon=     1 RMS=6.00D-04 Max=1.04D-02 NDo=     1
 AX will form     1 AO Fock derivatives at one time.
 LinEq1:  Iter=  1 NonCon=     1 RMS=7.70D-04 Max=9.14D-03 NDo=     1
 LinEq1:  Iter=  2 NonCon=     1 RMS=1.62D-04 Max=2.26D-03 NDo=     1
 LinEq1:  Iter=  3 NonCon=     1 RMS=1.24D-04 Max=1.39D-03 NDo=     1
 LinEq1:  Iter=  4 NonCon=     1 RMS=3.41D-05 Max=5.45D-04 NDo=     1
 LinEq1:  Iter=  5 NonCon=     1 RMS=1.28D-05 Max=2.14D-04 NDo=     1
 LinEq1:  Iter=  6 NonCon=     1 RMS=8.06D-06 Max=1.09D-04 NDo=     1
 LinEq1:  Iter=  7 NonCon=     1 RMS=3.29D-06 Max=2.78D-05 NDo=     1
 LinEq1:  Iter=  8 NonCon=     1 RMS=1.21D-06 Max=9.49D-06 NDo=     1
 LinEq1:  Iter=  9 NonCon=     1 RMS=5.72D-07 Max=5.46D-06 NDo=     1
 LinEq1:  Iter= 10 NonCon=     1 RMS=1.81D-07 Max=2.14D-06 NDo=     1
 LinEq1:  Iter= 11 NonCon=     1 RMS=5.39D-08 Max=5.07D-07 NDo=     1
 LinEq1:  Iter= 12 NonCon=     1 RMS=1.36D-08 Max=1.07D-07 NDo=     1
 LinEq1:  Iter= 13 NonCon=     0 RMS=3.03D-09 Max=2.63D-08 NDo=     1
 Linear equations converged to 3.074D-09 3.074D-08 after    13 iterations.
 Angle between quadratic step and gradient=  50.96 degrees.
     ILin= 1 X=0.000D+00 Y=-1.913215015738D+02 DE= 0.00D+00 F= -2.01D-04
     ILin= 2 X=1.000D+00 Y=-1.913216014872D+02 DE=-9.99D-05 F=  1.05D-06
     Accept linear search using points  1 and  2.
     An  expanding polynomial of degree  2 produced  0.9948
     Minimum is close to point  2 DX= -5.16D-03 DF= -2.70D-09 DXR=  5.19D-03 DFR=  2.70D-05 which will be used.
 Iteration   8 EE= -191.321601487211     Delta-E=       -0.000099913426 Grad=5.757D-05 Max rot=    0.0020 deg.
 QCNR:  CnvC1=5.76D-10 CnvC2=5.76D-09
 LinEq1:  Iter=  0 NonCon=     1 RMS=4.70D-06 Max=1.15D-04 NDo=     1
 LinEq1:  Iter=  1 NonCon=     1 RMS=4.60D-06 Max=8.85D-05 NDo=     1
 LinEq1:  Iter=  2 NonCon=     1 RMS=2.12D-06 Max=2.29D-05 NDo=     1
 LinEq1:  Iter=  3 NonCon=     1 RMS=2.35D-06 Max=4.44D-05 NDo=     1
 LinEq1:  Iter=  4 NonCon=     1 RMS=8.24D-07 Max=1.38D-05 NDo=     1
 LinEq1:  Iter=  5 NonCon=     1 RMS=2.40D-07 Max=2.09D-06 NDo=     1
 LinEq1:  Iter=  6 NonCon=     1 RMS=1.10D-07 Max=1.25D-06 NDo=     1
 LinEq1:  Iter=  7 NonCon=     1 RMS=4.53D-08 Max=5.40D-07 NDo=     1
 LinEq1:  Iter=  8 NonCon=     1 RMS=1.73D-08 Max=1.20D-07 NDo=     1
 LinEq1:  Iter=  9 NonCon=     1 RMS=1.05D-08 Max=1.19D-07 NDo=     1
 LinEq1:  Iter= 10 NonCon=     1 RMS=3.80D-09 Max=4.16D-08 NDo=     1
 LinEq1:  Iter= 11 NonCon=     1 RMS=1.12D-09 Max=1.12D-08 NDo=     1
 LinEq1:  Iter= 12 NonCon=     0 RMS=2.34D-10 Max=1.94D-09 NDo=     1
 Linear equations converged to 5.757D-10 5.757D-09 after    12 iterations.
 Angle between quadratic step and gradient=  44.47 degrees.
     ILin= 1 X=0.000D+00 Y=-1.913216014872D+02 DE= 0.00D+00 F= -1.56D-08
     ILin= 2 X=1.000D+00 Y=-1.913216014950D+02 DE=-7.81D-09
 Iteration   9 EE= -191.321601495020     Delta-E=       -0.000000007809 Grad=1.439D-08 Max rot=    0.0000 deg.
 Rotation gradient small -- convergence achieved.
 SCF Done:  E(UB3LYP) =  -191.321601495     a.u. after    9 cycles
            Convg  =    0.1439D-07                    43 Fock formations.
              S**2 =  0.7519                  -V/T =  2.0082
 <Sx>= 0.0000 <Sy>= 0.0000 <Sz>= 0.5000 <S**2>= 0.7519 S= 0.5009
 <L.S>= 0.000000000000E+00
 Annihilation of the first spin contaminant:
 S**2 before annihilation     0.7519,   after     0.7500
 Leave Link  508 at Wed Jan  6 07:03:54 2021, MaxMem=    33554432 cpu:        29.5
 (Enter /apps/applications/gaussian/G09.D01/2/default/g09/l801.exe)
 DoSCS=F DFT=T ScalE2(SS,OS)=  1.000000  1.000000
 Range of M.O.s used for correlation:     1    46
 NBasis=    46 NAE=    16 NBE=    15 NFC=     0 NFV=     0
 NROrb=     46 NOA=    16 NOB=    15 NVA=    30 NVB=    31

 **** Warning!!: The largest alpha MO coefficient is  0.10853757D+02


 **** Warning!!: The largest beta MO coefficient is  0.11149431D+02

 Leave Link  801 at Wed Jan  6 07:03:54 2021, MaxMem=    33554432 cpu:         0.1
 (Enter /apps/applications/gaussian/G09.D01/2/default/g09/l1101.exe)
 Using compressed storage, NAtomX=     9.
 Will process     10 centers per pass.
 Leave Link 1101 at Wed Jan  6 07:03:54 2021, MaxMem=    33554432 cpu:         0.1
 (Enter /apps/applications/gaussian/G09.D01/2/default/g09/l1102.exe)
 Symmetrizing basis deriv contribution to polar:
 IMax=3 JMax=2 DiffMx= 0.00D+00
 Leave Link 1102 at Wed Jan  6 07:03:54 2021, MaxMem=    33554432 cpu:         0.1
 (Enter /apps/applications/gaussian/G09.D01/2/default/g09/l1110.exe)
 Forming Gx(P) for the SCF density, NAtomX=     9.
 Integral derivatives from FoFJK, PRISM(SPDF).
 Do as many integral derivatives as possible in FoFJK.
 G2DrvN: MDV=      33554256.
 G2DrvN: will do    10 centers at a time, making    1 passes.
 Calling FoFCou, ICntrl=  3107 FMM=F I1Cent=   0 AccDes= 0.00D+00.
 FoFJK:  IHMeth= 1 ICntrl=    3107 DoSepK=F KAlg= 0 I1Cent=   0 FoldK=F
 IRaf=         0 NMat=   1 IRICut=       1 DoRegI=T DoRafI=F ISym2E= 0.
 FoFCou: FMM=F IPFlag=           0 FMFlag=      100000 FMFlg1=           0
         NFxFlg=           0 DoJE=F BraDBF=F KetDBF=F FulRan=T
         wScrn=  0.000000 ICntrl=    3107 IOpCl=  1 I1Cent=           0 NGrid=           0
         NMat0=    1 NMatS0=      1 NMatT0=    0 NMatD0=    1 NMtDS0=    0 NMtDT0=    0
 Symmetry not used in FoFCou.
 End of G2Drv F.D. properties file   721 does not exist.
 End of G2Drv F.D. properties file   722 does not exist.
 End of G2Drv F.D. properties file   788 does not exist.
 Leave Link 1110 at Wed Jan  6 07:04:05 2021, MaxMem=    33554432 cpu:        10.0
 (Enter /apps/applications/gaussian/G09.D01/2/default/g09/l1002.exe)
 Minotr:  UHF open shell wavefunction.
          IDoAtm=111111111
          Direct CPHF calculation.
          Differentiating once with respect to electric field.
                with respect to dipole field.
          Differentiating once with respect to nuclear coordinates.
          Requested convergence is 1.0D-08 RMS, and 1.0D-07 maximum.
          Secondary convergence is 1.0D-12 RMS, and 1.0D-12 maximum.
          NewPWx=T KeepS1=F KeepF1=F KeepIn=T MapXYZ=F SortEE=F KeepMc=T.
          MDV=      33554246 using IRadAn=       2.
 Generate precomputed XC quadrature information.
 Keep R1 and R2 ints in memory in canonical form, NReq=2035813.
 FoFCou: FMM=F IPFlag=           0 FMFlag=           0 FMFlg1=           0
         NFxFlg=           0 DoJE=F BraDBF=F KetDBF=F FulRan=T
         wScrn=  0.000000 ICntrl=     600 IOpCl=  0 I1Cent=           0 NGrid=           0
         NMat0=    1 NMatS0=   1081 NMatT0=    0 NMatD0=    1 NMtDS0=    0 NMtDT0=    0
 Symmetry not used in FoFCou.
          Solving linear equations simultaneously, MaxMat=       0.
          There are    30 degrees of freedom in the 1st order CPHF.  IDoFFX=6 NUNeed=     3.
     27 vectors produced by pass  0 Test12= 3.15D-15 3.33D-09 XBig12= 9.02D+01 5.95D+00.
 AX will form    27 AO Fock derivatives at one time.
     27 vectors produced by pass  1 Test12= 3.15D-15 3.33D-09 XBig12= 2.38D+01 8.15D-01.
     27 vectors produced by pass  2 Test12= 3.15D-15 3.33D-09 XBig12= 2.12D-01 1.08D-01.
     27 vectors produced by pass  3 Test12= 3.15D-15 3.33D-09 XBig12= 1.09D-03 7.91D-03.
     27 vectors produced by pass  4 Test12= 3.15D-15 3.33D-09 XBig12= 2.41D-06 2.50D-04.
     26 vectors produced by pass  5 Test12= 3.15D-15 3.33D-09 XBig12= 5.50D-09 1.03D-05.
      8 vectors produced by pass  6 Test12= 3.15D-15 3.33D-09 XBig12= 1.41D-11 6.82D-07.
      2 vectors produced by pass  7 Test12= 3.15D-15 3.33D-09 XBig12= 2.26D-14 2.05D-08.
 InvSVY:  IOpt=1 It=  1 EMax= 5.33D-15
 Solved reduced A of dimension   171 with    30 vectors.
 FullF1:  Do perturbations    1 to     3.
 Isotropic polarizability for W=    0.000000       34.22 Bohr**3.
 End of Minotr F.D. properties file   721 does not exist.
 End of Minotr F.D. properties file   722 does not exist.
 End of Minotr F.D. properties file   788 does not exist.
 Leave Link 1002 at Wed Jan  6 07:04:14 2021, MaxMem=    33554432 cpu:         9.5
 (Enter /apps/applications/gaussian/G09.D01/2/default/g09/l601.exe)
 Copying SCF densities to generalized density rwf, IOpCl= 1 IROHF=0.

 **********************************************************************

            Population analysis using the SCF density.

 **********************************************************************

 Alpha  occ. eigenvalues --  -19.00437 -10.14903 -10.14491 -10.13196  -0.94306
 Alpha  occ. eigenvalues --   -0.78917  -0.71298  -0.54612  -0.47056  -0.44225
 Alpha  occ. eigenvalues --   -0.43398  -0.39397  -0.34142  -0.26992  -0.25196
 Alpha  occ. eigenvalues --   -0.20248
 Alpha virt. eigenvalues --    0.04352   0.05295   0.12567   0.15079   0.15947
 Alpha virt. eigenvalues --    0.19515   0.19777   0.26369   0.47299   0.68466
 Alpha virt. eigenvalues --    0.70199   0.75086   0.78455   0.81759   0.88536
 Alpha virt. eigenvalues --    0.90970   0.95817   0.99379   1.02765   1.03341
 Alpha virt. eigenvalues --    1.05048   1.14973   1.24896   1.36537   1.54234
 Alpha virt. eigenvalues --    1.56039   1.70100   2.03438   2.05569   2.69747
  Beta  occ. eigenvalues --  -18.98432 -10.14648 -10.14493 -10.12968  -0.89188
  Beta  occ. eigenvalues --   -0.78251  -0.70662  -0.54279  -0.46823  -0.43597
  Beta  occ. eigenvalues --   -0.43278  -0.37213  -0.28217  -0.26138  -0.22932
  Beta virt. eigenvalues --   -0.04392   0.04669   0.06677   0.12827   0.15474
  Beta virt. eigenvalues --    0.16598   0.19611   0.20017   0.26709   0.47550
  Beta virt. eigenvalues --    0.68836   0.70391   0.75622   0.78594   0.82750
  Beta virt. eigenvalues --    0.88664   0.91620   0.96025   0.99640   1.02835
  Beta virt. eigenvalues --    1.03614   1.05278   1.16120   1.25818   1.37401
  Beta virt. eigenvalues --    1.56813   1.59143   1.74550   2.03740   2.05828
  Beta virt. eigenvalues --    2.73909
          Condensed to atoms (all electrons):
               1          2          3          4          5          6
     1  C    5.369166   0.266575   0.365668   0.362728   0.356777  -0.049227
     2  C    0.266575   4.852355  -0.048164  -0.047012  -0.052705   0.902397
     3  H    0.365668  -0.048164   0.503729  -0.025210  -0.024216  -0.002292
     4  H    0.362728  -0.047012  -0.025210   0.490928  -0.025290  -0.001780
     5  H    0.356777  -0.052705  -0.024216  -0.025290   0.524596  -0.002028
     6  C   -0.049227   0.902397  -0.002292  -0.001780  -0.002028   5.080774
     7  H    0.000852  -0.022076  -0.000018  -0.000024  -0.000004   0.377011
     8  O   -0.003470  -0.000980   0.000563   0.001123   0.000202   0.009926
     9  H    0.000636  -0.000244   0.000213  -0.000217  -0.000008  -0.000800
               7          8          9
     1  C    0.000852  -0.003470   0.000636
     2  C   -0.022076  -0.000980  -0.000244
     3  H   -0.000018   0.000563   0.000213
     4  H   -0.000024   0.001123  -0.000217
     5  H   -0.000004   0.000202  -0.000008
     6  C    0.377011   0.009926  -0.000800
     7  H    0.406940  -0.003157   0.000276
     8  O   -0.003157   8.221010   0.187130
     9  H    0.000276   0.187130   0.504198
          Atomic-Atomic Spin Densities.
               1          2          3          4          5          6
     1  C   -0.010488  -0.005203  -0.001497  -0.001344   0.006873  -0.000944
     2  C   -0.005203   0.162213  -0.000587  -0.000593  -0.004021   0.041908
     3  H   -0.001497  -0.000587   0.005103   0.001155  -0.001484  -0.000028
     4  H   -0.001344  -0.000593   0.001155   0.004938  -0.001331  -0.000009
     5  H    0.006873  -0.004021  -0.001484  -0.001331   0.005685  -0.000337
     6  C   -0.000944   0.041908  -0.000028  -0.000009  -0.000337   0.113900
     7  H    0.000011   0.000059  -0.000004  -0.000004   0.000005  -0.000538
     8  O   -0.000631  -0.067418   0.000547   0.000483  -0.000079  -0.060608
     9  H    0.000029   0.004115  -0.000141  -0.000035   0.000009   0.004189
               7          8          9
     1  C    0.000011  -0.000631   0.000029
     2  C    0.000059  -0.067418   0.004115
     3  H   -0.000004   0.000547  -0.000141
     4  H   -0.000004   0.000483  -0.000035
     5  H    0.000005  -0.000079   0.000009
     6  C   -0.000538  -0.060608   0.004189
     7  H   -0.003129  -0.001061   0.000138
     8  O   -0.001061   0.939893  -0.010743
     9  H    0.000138  -0.010743  -0.019872
 Mulliken charges and spin densities:
               1          2
     1  C   -0.669704  -0.013194
     2  C    0.149854   0.130472
     3  H    0.229727   0.003064
     4  H    0.244756   0.003260
     5  H    0.222677   0.005319
     6  C   -0.313981   0.097533
     7  H    0.240200  -0.004524
     8  O   -0.412346   0.800383
     9  H    0.308817  -0.022312
 Sum of Mulliken charges =   0.00000   1.00000
 Mulliken charges and spin densities with hydrogens summed into heavy atoms:
               1          2
     1  C    0.027456  -0.001551
     2  C    0.149854   0.130472
     6  C   -0.073780   0.093008
     8  O   -0.103530   0.778071
 APT charges:
               1
     1  C    0.047364
     2  C    0.043545
     3  H    0.019117
     4  H    0.028075
     5  H    0.011834
     6  C   -0.341057
     7  H    0.211818
     8  O   -0.160173
     9  H    0.139477
 Sum of APT charges =   0.00000
 APT charges with hydrogens summed into heavy atoms:
               1
     1  C    0.106389
     2  C    0.043545
     6  C   -0.129238
     8  O   -0.020696
 Electronic spatial extent (au):  <R**2>=           8078.4117
 Charge=              0.0000 electrons
 Dipole moment (field-independent basis, Debye):
    X=              0.9950    Y=              0.0945    Z=             -1.4193  Tot=              1.7359
 Quadrupole moment (field-independent basis, Debye-Ang):
   XX=            -34.3725   YY=            -19.3552   ZZ=            -42.6118
   XY=             -3.0062   XZ=             15.7991   YZ=              0.9730
 Traceless Quadrupole moment (field-independent basis, Debye-Ang):
   XX=             -2.2594   YY=             12.7580   ZZ=            -10.4986
   XY=             -3.0062   XZ=             15.7991   YZ=              0.9730
 Octapole moment (field-independent basis, Debye-Ang**2):
  XXX=            421.5135  YYY=             -7.7423  ZZZ=           -678.3024  XYY=             88.9474
  XXY=             20.0801  XXZ=           -293.9816  XZZ=            276.0508  YZZ=              3.7885
  YYZ=           -129.2876  XYZ=            -19.9607
 Hexadecapole moment (field-independent basis, Debye-Ang**3):
 XXXX=          -3948.4045 YYYY=           -144.7394 ZZZZ=          -8455.5730 XXXY=            -69.2039
 XXXZ=           3275.5201 YYYX=             61.4683 YYYZ=            -62.9300 ZZZX=           3782.0210
 ZZZY=            -47.1777 XXYY=           -466.3312 XXZZ=          -2934.8692 YYZZ=           -896.3114
 XXYZ=            113.5322 YYXZ=            594.2499 ZZXY=           -100.8627
 N-N= 1.044716395376D+02 E-N=-6.558825384293D+02  KE= 1.897734231934D+02
  Exact polarizability:  39.160  -5.780  40.959   3.088   5.471  22.535
 Approx polarizability:  54.952  -8.402  67.610   2.273  10.915  29.285
                          Isotropic Fermi Contact Couplings
        Atom                 a.u.       MegaHertz       Gauss      10(-4) cm-1
     1  C(13)             -0.00470      -5.28246      -1.88491      -1.76204
     2  C(13)              0.03168      35.61406      12.70798      11.87957
     3  H(1)               0.00093       4.15861       1.48390       1.38716
     4  H(1)               0.00107       4.79603       1.71134       1.59978
     5  H(1)               0.00305      13.62239       4.86081       4.54394
     6  C(13)              0.02720      30.58258      10.91262      10.20125
     7  H(1)              -0.00138      -6.17785      -2.20441      -2.06071
     8  O(17)              0.16701    -101.24180     -36.12559     -33.77063
     9  H(1)              -0.01041     -46.52352     -16.60075     -15.51858
 --------------------------------------------------------
       Center         ----  Spin Dipole Couplings  ----
                      3XX-RR        3YY-RR        3ZZ-RR
 --------------------------------------------------------
     1   Atom        0.003207      0.003793     -0.007000
     2   Atom        0.198177     -0.096751     -0.101426
     3   Atom        0.000725      0.001114     -0.001839
     4   Atom       -0.000453      0.006053     -0.005600
     5   Atom        0.002533      0.000907     -0.003440
     6   Atom        0.113793     -0.031063     -0.082730
     7   Atom       -0.004728      0.018036     -0.013308
     8   Atom        2.279728     -0.918406     -1.361321
     9   Atom       -0.040285     -0.057446      0.097730
 --------------------------------------------------------
                        XY            XZ            YZ
 --------------------------------------------------------
     1   Atom       -0.006686     -0.001057      0.003169
     2   Atom        0.006622      0.048003      0.006082
     3   Atom       -0.004755     -0.004023      0.005142
     4   Atom       -0.005942      0.001207     -0.001005
     5   Atom       -0.005064     -0.000908      0.000763
     6   Atom        0.098151      0.060899      0.036293
     7   Atom        0.004464      0.002833      0.012997
     8   Atom        1.288053      0.083864      0.019385
     9   Atom       -0.000566      0.044120     -0.087274
 --------------------------------------------------------


 ---------------------------------------------------------------------------------
              Anisotropic Spin Dipole Couplings in Principal Axis System
 ---------------------------------------------------------------------------------

       Atom             a.u.   MegaHertz   Gauss  10(-4) cm-1        Axes

              Baa    -0.0079    -1.065    -0.380    -0.355 -0.0968 -0.3107  0.9456
     1 C(13)  Bbb    -0.0028    -0.373    -0.133    -0.124  0.7371  0.6160  0.2779
              Bcc     0.0107     1.437     0.513     0.479 -0.6688  0.7239  0.1694
 
              Baa    -0.1107   -14.859    -5.302    -4.956 -0.1373 -0.3397  0.9304
     2 C(13)  Bbb    -0.0951   -12.766    -4.555    -4.258 -0.0756  0.9402  0.3322
              Bcc     0.2059    27.625     9.857     9.215  0.9876  0.0247  0.1548
 
              Baa    -0.0058    -3.071    -1.096    -1.024  0.1211 -0.5397  0.8331
     3 H(1)   Bbb    -0.0037    -1.962    -0.700    -0.654  0.8045  0.5450  0.2361
              Bcc     0.0094     5.032     1.796     1.679 -0.5815  0.6416  0.5002
 
              Baa    -0.0059    -3.141    -1.121    -1.048 -0.2741 -0.0556  0.9601
     4 H(1)   Bbb    -0.0038    -2.044    -0.729    -0.682  0.8150  0.5166  0.2626
              Bcc     0.0097     5.185     1.850     1.729 -0.5106  0.8544 -0.0963
 
              Baa    -0.0036    -1.908    -0.681    -0.636  0.1186 -0.0349  0.9923
     5 H(1)   Bbb    -0.0034    -1.819    -0.649    -0.607  0.6434  0.7639 -0.0500
              Bcc     0.0070     3.726     1.330     1.243  0.7563 -0.6444 -0.1130
 
              Baa    -0.1026   -13.774    -4.915    -4.595 -0.1285 -0.3027  0.9444
     6 C(13)  Bbb    -0.0796   -10.679    -3.811    -3.562 -0.4934  0.8456  0.2039
              Bcc     0.1822    24.453     8.726     8.157  0.8603  0.4398  0.2580
 
              Baa    -0.0181    -9.657    -3.446    -3.221 -0.0901 -0.3272  0.9407
     7 H(1)   Bbb    -0.0056    -2.968    -1.059    -0.990  0.9797 -0.1989  0.0247
              Bcc     0.0237    12.625     4.505     4.211  0.1790  0.9238  0.3385
 
              Baa    -1.3786    99.755    35.595    33.275 -0.2930  0.7979  0.5267
     8 O(17)  Bbb    -1.3572    98.203    35.041    32.757  0.1585 -0.5028  0.8498
              Bcc     2.7358  -197.958   -70.636   -66.032  0.9429  0.3325  0.0209
 
              Baa    -0.1022   -54.544   -19.463   -18.194 -0.3032  0.8470  0.4366
     9 H(1)   Bbb    -0.0436   -23.240    -8.293    -7.752  0.9286  0.3655 -0.0642
              Bcc     0.1458    77.784    27.755    25.946  0.2140 -0.3860  0.8974
 

 ---------------------------------------------------------------------------------

 No NMR shielding tensors so no spin-rotation constants.
 Leave Link  601 at Wed Jan  6 07:04:14 2021, MaxMem=    33554432 cpu:         0.1
 (Enter /apps/applications/gaussian/G09.D01/2/default/g09/l701.exe)
 Compute integral second derivatives.
 ... and contract with generalized density number  0.
 Leave Link  701 at Wed Jan  6 07:04:15 2021, MaxMem=    33554432 cpu:         0.1
 (Enter /apps/applications/gaussian/G09.D01/2/default/g09/l702.exe)
 L702 exits ... SP integral derivatives will be done elsewhere.
 Leave Link  702 at Wed Jan  6 07:04:15 2021, MaxMem=    33554432 cpu:         0.0
 (Enter /apps/applications/gaussian/G09.D01/2/default/g09/l703.exe)
 Compute integral second derivatives, UseDBF=F ICtDFT=           0.
 Integral derivatives from FoFJK, PRISM(SPDF).
 Calling FoFJK, ICntrl=    100127 FMM=F ISym2X=0 I1Cent= 0 IOpClX= 1 NMat=1 NMatS=1 NMatT=0.
 FoFJK:  IHMeth= 1 ICntrl=  100127 DoSepK=F KAlg= 0 I1Cent=   0 FoldK=F
 IRaf=         0 NMat=   1 IRICut=       1 DoRegI=T DoRafI=F ISym2E= 0.
 FoFCou: FMM=F IPFlag=           0 FMFlag=      100000 FMFlg1=         800
         NFxFlg=           0 DoJE=F BraDBF=F KetDBF=F FulRan=T
         wScrn=  0.000000 ICntrl=  100127 IOpCl=  1 I1Cent=           0 NGrid=           0
         NMat0=    1 NMatS0=      1 NMatT0=    0 NMatD0=    1 NMtDS0=    0 NMtDT0=    0
 Symmetry not used in FoFCou.
 Leave Link  703 at Wed Jan  6 07:04:23 2021, MaxMem=    33554432 cpu:         8.7
 (Enter /apps/applications/gaussian/G09.D01/2/default/g09/l716.exe)
 Dipole        = 3.91462360D-01 3.71835304D-02-5.58406758D-01
 Polarizability= 3.91599636D+01-5.77950351D+00 4.09591844D+01
                 3.08771103D+00 5.47090347D+00 2.25352130D+01
 -------------------------------------------------------------------
 Center     Atomic                   Forces (Hartrees/Bohr)
 Number     Number              X              Y              Z
 -------------------------------------------------------------------
      1        6           0.005202667   -0.025906214   -0.004685337
      2        6          -0.010295307    0.058805390    0.012460169
      3        1           0.001525915    0.002074364    0.004693322
      4        1           0.002167731    0.006714722   -0.003068712
      5        1          -0.003039269    0.001538678   -0.000757603
      6        6           0.024460051   -0.061209095   -0.016742720
      7        1          -0.004785856    0.023729836    0.008184480
      8        8          -0.015003092   -0.021541821    0.035105529
      9        1          -0.000232840    0.015794140   -0.035189127
 -------------------------------------------------------------------
 Cartesian Forces:  Max     0.061209095 RMS     0.022133435
 Force constants in Cartesian coordinates: 
                1             2             3             4             5 
      1  0.516177D+00
      2 -0.164392D-01  0.536106D+00
      3  0.113535D-02  0.133251D-01  0.506179D+00
      4 -0.770324D-01  0.690546D-01  0.210116D-01  0.188155D+00
      5  0.726950D-01 -0.267152D+00 -0.642486D-01 -0.333842D+00  0.110379D+01
      6  0.224176D-01 -0.618165D-01 -0.803309D-01 -0.995927D-01  0.283259D+00
      7 -0.587580D-01 -0.766998D-02 -0.524624D-01  0.422223D-03  0.253666D-02
      8 -0.763870D-02 -0.536940D-01 -0.369992D-01 -0.535374D-02 -0.154346D-01
      9 -0.524984D-01 -0.368064D-01 -0.267093D+00  0.166560D-02 -0.830806D-02
     10 -0.990025D-01 -0.750897D-01  0.607197D-01  0.552487D-02  0.922599D-02
     11 -0.751397D-01 -0.158789D+00  0.875683D-01 -0.110334D-01 -0.354254D-01
     12  0.604112D-01  0.871723D-01 -0.117143D+00 -0.764824D-02 -0.909912D-02
     13 -0.283452D+00  0.241825D-01 -0.309605D-01 -0.962431D-02  0.907423D-02
     14  0.257167D-01 -0.517740D-01  0.242706D-02  0.378266D-01 -0.125305D-01
     15 -0.305115D-01  0.220405D-02 -0.515469D-01  0.124538D-01 -0.155594D-02
     16  0.492640D-02  0.548298D-02  0.215260D-02 -0.812076D-01  0.214549D+00
     17 -0.324489D-02 -0.324918D-02 -0.154908D-03  0.266523D+00 -0.788986D+00
     18 -0.647780D-03 -0.150352D-02  0.462732D-02  0.809619D-01 -0.211830D+00
     19  0.433714D-02  0.122056D-02 -0.112375D-03 -0.193599D-03  0.808123D-03
     20  0.114299D-02  0.119860D-02 -0.161582D-02 -0.258450D-02  0.865074D-02
     21 -0.727876D-04 -0.192282D-02  0.551137D-02 -0.191637D-02  0.605623D-02
     22 -0.595972D-02 -0.116599D-02 -0.146252D-02 -0.288755D-01  0.218597D-01
     23  0.237420D-02 -0.238620D-02 -0.111926D-02 -0.187052D-01  0.915177D-02
     24 -0.860721D-03 -0.700911D-03 -0.252248D-03 -0.650862D-02  0.664205D-02
     25 -0.123653D-02  0.424226D-03 -0.214141D-04  0.283096D-02  0.309342D-02
     26  0.533591D-03 -0.260484D-03  0.817331D-03 -0.188517D-02 -0.206630D-02
     27  0.627096D-03  0.487576D-04  0.480066D-04 -0.426874D-03 -0.915937D-03
                6             7             8             9            10 
      6  0.188213D+00
      7  0.137135D-01  0.623539D-01
      8 -0.376075D-01  0.692917D-02  0.658251D-01
      9 -0.851642D-02  0.576362D-01  0.450560D-01  0.297539D+00
     10 -0.973792D-02  0.257762D-02  0.601012D-02 -0.465008D-02  0.107482D+00
     11  0.150535D-01  0.278380D-02  0.407448D-02 -0.226202D-02  0.832711D-01
     12  0.734275D-02  0.161867D-01  0.234965D-01 -0.195929D-01 -0.678475D-01
     13  0.217184D-02 -0.732586D-02 -0.333959D-03 -0.932857D-03 -0.164643D-01
     14  0.314161D-02 -0.561751D-02 -0.421003D-03  0.496392D-03 -0.239552D-01
     15 -0.126691D-02 -0.336399D-01  0.381349D-02 -0.371464D-02  0.194787D-01
     16  0.622570D-01  0.176280D-03  0.818968D-03 -0.977485D-03 -0.599837D-03
     17 -0.204021D+00  0.117001D-02 -0.177232D-03  0.129858D-02  0.140996D-02
     18 -0.108947D+00 -0.499984D-03  0.438243D-03  0.399269D-03  0.121004D-02
     19  0.764527D-03 -0.697099D-04  0.295175D-03  0.110217D-03 -0.205761D-03
     20  0.129499D-02  0.982019D-04 -0.318928D-03 -0.155830D-04 -0.254197D-03
     21  0.255866D-02 -0.457933D-03  0.123600D-02  0.196194D-03  0.599511D-03
     22  0.112970D-01  0.785097D-03 -0.122661D-02 -0.540668D-03  0.587344D-03
     23  0.828251D-04 -0.946329D-03  0.599722D-03  0.908322D-03 -0.416830D-03
     24 -0.175726D-02 -0.474626D-03  0.682410D-03  0.943720D-03 -0.100983D-03
     25 -0.329077D-02 -0.161555D-03  0.499570D-03  0.187448D-03  0.100680D-03
     26  0.613566D-03  0.715967D-03 -0.453453D-03 -0.367208D-03 -0.201296D-03
     27  0.270454D-02 -0.149822D-05 -0.115961D-03 -0.161497D-03  0.328534D-03
               11            12            13            14            15 
     11  0.185013D+00
     12 -0.959144D-01  0.128766D+00
     13  0.909537D-03 -0.249681D-02  0.315560D+00
     14  0.293363D-02 -0.425843D-02 -0.320176D-01  0.613023D-01
     15 -0.262758D-02  0.160944D-02  0.328999D-01 -0.975001D-03  0.538101D-01
     16 -0.458051D-03  0.113129D-02  0.192064D-02 -0.224735D-02 -0.854660D-03
     17 -0.255115D-04 -0.120240D-02 -0.128437D-02 -0.253906D-03 -0.709495D-03
     18 -0.336306D-03 -0.303076D-03 -0.470234D-03 -0.769515D-03  0.585282D-03
     19  0.770016D-03  0.310338D-03  0.389931D-04 -0.801183D-03 -0.211955D-03
     20  0.527363D-03  0.159726D-03  0.105528D-04 -0.179208D-03 -0.535326D-04
     21 -0.941870D-03 -0.341526D-03  0.724474D-05 -0.129586D-03 -0.134282D-04
     22 -0.720657D-03 -0.782171D-04 -0.702538D-03  0.117417D-02  0.206254D-03
     23  0.133749D-02 -0.400512D-03 -0.630103D-03  0.121718D-02  0.243287D-03
     24 -0.261645D-03 -0.255509D-03 -0.304534D-03  0.346464D-03  0.611801D-03
     25 -0.382573D-03  0.312388D-04  0.489102D-04 -0.786920D-04  0.179409D-03
     26  0.353366D-03  0.463036D-04  0.892190D-04 -0.294469D-03 -0.339271D-03
     27 -0.278028D-03 -0.813680D-04  0.859359D-04 -0.278996D-03 -0.747015D-04
               16            17            18            19            20 
     16  0.126949D+00
     17 -0.355955D+00  0.122026D+01
     18 -0.106884D+00  0.344811D+00  0.158484D+00
     19 -0.389302D-01  0.127228D+00  0.406996D-01  0.394595D-01
     20  0.127366D+00 -0.424512D+00 -0.131245D+00 -0.124553D+00  0.415541D+00
     21  0.421520D-01 -0.135022D+00 -0.526206D-01 -0.390454D-01  0.132338D+00
     22 -0.115957D-01 -0.346376D-01 -0.111955D-01 -0.429537D-02 -0.960476D-03
     23  0.122310D-01 -0.460786D-02  0.591991D-02 -0.407764D-02 -0.559854D-03
     24  0.419092D-03 -0.410799D-02 -0.249667D-02 -0.199127D-02 -0.821805D-03
     25 -0.163874D-02 -0.120806D-02 -0.317408D-02 -0.140950D-03 -0.264995D-03
     26 -0.178672D-02  0.155147D-02 -0.548545D-02 -0.889299D-03 -0.347471D-03
     27  0.604130D-03 -0.892029D-03  0.271323D-03 -0.523745D-03 -0.407432D-04
               21            22            23            24            25 
     21  0.447862D-01
     22 -0.117119D-02  0.560242D-01
     23 -0.121835D-02 -0.176584D-01  0.684919D-01
     24  0.897144D-03  0.775336D-01 -0.201914D+00  0.421209D+00
     25 -0.951028D-04 -0.596788D-02  0.278293D-01 -0.677119D-01  0.616511D-02
     26 -0.395854D-03  0.333359D-01 -0.732441D-01  0.200135D+00 -0.299121D-01
     27 -0.974000D-03 -0.745888D-01  0.197498D+00 -0.418900D+00  0.738952D-01
               26            27 
     26  0.747615D-01
     27 -0.195025D+00  0.417167D+00
 Leave Link  716 at Wed Jan  6 07:04:24 2021, MaxMem=    33554432 cpu:         0.0
 (Enter /apps/applications/gaussian/G09.D01/2/default/g09/l103.exe)

 GradGradGradGradGradGradGradGradGradGradGradGradGradGradGradGradGradGrad
 Berny optimization.
 Search for a saddle point.
 Step number   1 out of a maximum of  100
 All quantities printed in internal units (Hartrees-Bohrs-Radians)
 Swapping is turned off.
 Second derivative matrix not updated -- analytic derivatives used.
 ITU=  0
     Eigenvalues ---   -0.03621  -0.00659  -0.00389   0.00230   0.00401
     Eigenvalues ---    0.00655   0.02063   0.05311   0.05896   0.09295
     Eigenvalues ---    0.10772   0.10951   0.14073   0.17055   0.24739
     Eigenvalues ---    0.50254   0.66929   0.70598   0.87657   0.88234
     Eigenvalues ---    2.38137
 Eigenvectors required to have negative eigenvalues:
                          Y9        Y8        Z9        X6        Z8
   1                    0.55704  -0.52611   0.32326   0.23945  -0.22042
                          X8        Y6        X9        X3        X1
   1                    0.16844   0.16216  -0.15849  -0.14619  -0.12772
 Eigenvalue     2 is  -6.59D-03 should be greater than     0.000000 Eigenvector:
                          X9        Y9        Y8        X3        X6
   1                    0.75272  -0.29079  -0.23867  -0.23400   0.21330
                          X2        X1        Y6        X5        Z9
   1                   -0.19032  -0.15657   0.15245  -0.13923  -0.12966
 Eigenvalue     3 is  -3.89D-03 should be greater than     0.000000 Eigenvector:
                          Y9        X9        X4        X8        X6
   1                    0.56417   0.44483   0.34653  -0.24310  -0.23378
                          Z7        X5        Y6        Z5        Y3
   1                   -0.20758   0.16936  -0.15955  -0.15446  -0.13017
 RFO step:  Lambda0=2.322449299D-06 Lambda=-1.93942419D-02.
 Linear search not attempted -- option 19 set.
 Maximum step size (   0.300) exceeded in Quadratic search.
    -- Step size scaled by   0.276
 TrRot= -0.060746  0.031367 -0.024387  0.625610 -0.003321 -0.622077
 MatCor failed.
 Variable       Old X    -DE/DX   Delta X   Delta X   Delta X     New X
                                 (Linear)    (Quad)   (Total)
    X1       -7.21049   0.00520   0.00000  -0.01108  -0.03700  -7.24749
    Y1       -1.86779  -0.02591   0.00000   0.00235   0.00309  -1.86469
    Z1       12.38520  -0.00469   0.00000  -0.00800  -0.01678  12.36842
    X2       -8.02642  -0.01030   0.00000  -0.02519  -0.05787  -8.08429
    Y2        0.59879   0.05881   0.00000   0.01384   0.01136   0.61016
    Z2       13.12865   0.01246   0.00000   0.00072  -0.00496  13.12369
    X3       -7.66791   0.00153   0.00000  -0.03181  -0.06098  -7.72889
    Y3       -2.24629   0.00207   0.00000  -0.00092  -0.00087  -2.24716
    Z3       10.38173   0.00469   0.00000   0.00243  -0.00543  10.37630
    X4       -8.17425   0.00217   0.00000   0.01518  -0.00305  -8.17730
    Y4       -3.35308   0.00671   0.00000   0.01000   0.00700  -3.34608
    Z4       13.50746  -0.00307   0.00000   0.00994   0.00260  13.51006
    X5       -5.15781  -0.00304   0.00000  -0.00778  -0.03241  -5.19022
    Y5       -2.12717   0.00154   0.00000   0.03184   0.03953  -2.08764
    Z5       12.63770  -0.00076   0.00000  -0.03353  -0.04712  12.59057
    X6       -8.69761   0.02446   0.00000   0.04838   0.00966  -8.68795
    Y6        2.76347  -0.06121   0.00000   0.01508   0.01025   2.77372
    Z6       13.72358  -0.01674   0.00000   0.01355   0.01027  13.73386
    X7       -9.23670  -0.00479   0.00000   0.01864  -0.02502  -9.26171
    Y7        4.54782   0.02373   0.00000   0.03137   0.02433   4.57215
    Z7       14.29613   0.00818   0.00000  -0.01993  -0.02104  14.27509
    X8      -12.10929  -0.01500   0.00000  -0.09932  -0.13301 -12.24230
    Y8        0.76216  -0.02154   0.00000  -0.05824  -0.07483   0.68733
    Z8       12.79246   0.03511   0.00000   0.01962   0.02350  12.81596
    X9      -12.42144  -0.00023   0.00000   0.25705   0.21668 -12.20476
    Y9        1.49943   0.01579   0.00000   0.01582   0.00018   1.49961
    Z9       11.14262  -0.03519   0.00000  -0.02976  -0.02558  11.11703
         Item               Value     Threshold  Converged?
 Maximum Force            0.061209     0.000450     NO 
 RMS     Force            0.022133     0.000300     NO 
 Maximum Displacement     0.216685     0.001800     NO 
 RMS     Displacement     0.056839     0.001200     NO 
 Predicted change in Energy=-6.063038D-03
 Lowest energy point so far.  Saving SCF results.
 GradGradGradGradGradGradGradGradGradGradGradGradGradGradGradGradGradGrad

 Leave Link  103 at Wed Jan  6 07:04:24 2021, MaxMem=    33554432 cpu:         0.0
 (Enter /apps/applications/gaussian/G09.D01/2/default/g09/l202.exe)
                          Input orientation:                          
 ---------------------------------------------------------------------
 Center     Atomic      Atomic             Coordinates (Angstroms)
 Number     Number       Type             X           Y           Z
 ---------------------------------------------------------------------
      1          6           0       -3.835205   -0.986753    6.545085
      2          6           0       -4.278024    0.322881    6.944758
      3          1           0       -4.089953   -1.189148    5.490901
      4          1           0       -4.327239   -1.770670    7.149217
      5          1           0       -2.746547   -1.104729    6.662644
      6          6           0       -4.597466    1.467790    7.267644
      7          1           0       -4.901086    2.419478    7.554051
      8          8           0       -6.478345    0.363721    6.781913
      9          1           0       -6.458479    0.793558    5.882880
 ---------------------------------------------------------------------
                    Distance matrix (angstroms):
                    1          2          3          4          5
     1  C    0.000000
     2  C    1.439085   0.000000
     3  H    1.103252   2.106016   0.000000
     4  H    1.105259   2.104086   1.773269   0.000000
     5  H    1.101324   2.112600   1.784615   1.782923   0.000000
     6  C    2.669815   1.231713   3.236311   3.251872   3.226419
     7  H    3.708979   2.270499   4.235175   4.248592   4.225717
     8  O    2.977592   2.206717   3.127704   3.052507   4.012093
     9  H    3.238763   2.470527   3.113629   3.566659   4.241458
                    6          7          8          9
     6  C    0.000000
     7  H    1.039194   0.000000
     8  O    2.234415   2.703716   0.000000
     9  H    2.415684   2.803908   0.996702   0.000000
 Symmetry turned off by external request.
 Stoichiometry    C3H5O(2)
 Framework group  C1[X(C3H5O)]
 Deg. of freedom    21
 Full point group                 C1      NOp   1
 Rotational constants (GHZ):     11.8116396      6.0631817      4.1724083
 Leave Link  202 at Wed Jan  6 07:04:24 2021, MaxMem=    33554432 cpu:         0.0
 (Enter /apps/applications/gaussian/G09.D01/2/default/g09/l301.exe)
 Standard basis: 3-21G (6D, 7F)
 Ernie: Thresh=  0.10000D-02 Tol=  0.10000D-05 Strict=F.
    46 basis functions,    75 primitive gaussians,    46 cartesian basis functions
    16 alpha electrons       15 beta electrons
       nuclear repulsion energy       103.7401143859 Hartrees.
 IExCor=  402 DFT=T Ex+Corr=B3LYP ExCW=0 ScaHFX=  0.200000
 ScaDFX=  0.800000  0.720000  1.000000  0.810000 ScalE2=  1.000000  1.000000
 IRadAn=      0 IRanWt=     -1 IRanGd=            0 ICorTp=0 IEmpDi=  4
 NAtoms=    9 NActive=    9 NUniq=    9 SFac= 1.00D+00 NAtFMM=   60 NAOKFM=F Big=F
 Integral buffers will be    131072 words long.
 Raffenetti 2 integral format.
 Two-electron integral symmetry is turned off.
 Leave Link  301 at Wed Jan  6 07:04:24 2021, MaxMem=    33554432 cpu:         0.1
 (Enter /apps/applications/gaussian/G09.D01/2/default/g09/l302.exe)
 NPDir=0 NMtPBC=     1 NCelOv=     1 NCel=       1 NClECP=     1 NCelD=      1
         NCelK=      1 NCelE2=     1 NClLst=     1 CellRange=     0.0.
 One-electron integrals computed using PRISM.
 NBasis=    46 RedAO= T EigKep=  1.42D-03  NBF=    46
 NBsUse=    46 1.00D-06 EigRej= -1.00D+00 NBFU=    46
 Precomputing XC quadrature grid using
 IXCGrd= 4 IRadAn=           0 IRanWt=          -1 IRanGd=           0 AccXCQ= 0.00D+00.
 Generated NRdTot=       0 NPtTot=           0 NUsed=           0 NTot=          32
 NSgBfM=    46    46    46    46    46 MxSgAt=     9 MxSgA2=     9.
 Leave Link  302 at Wed Jan  6 07:04:24 2021, MaxMem=    33554432 cpu:         0.2
 (Enter /apps/applications/gaussian/G09.D01/2/default/g09/l303.exe)
 DipDrv:  MaxL=1.
 Leave Link  303 at Wed Jan  6 07:04:24 2021, MaxMem=    33554432 cpu:         0.0
 (Enter /apps/applications/gaussian/G09.D01/2/default/g09/l401.exe)
 Initial guess from the checkpoint file:  "/nobackup/chmrsh/Scratch/Gau-98793.chk"
 B after Tr=    -0.129885    0.048011   -0.058931
         Rot=    0.999989    0.000031   -0.003282   -0.003358 Ang=   0.54 deg.
 Guess basis will be translated and rotated to current coordinates.
 JPrj=2 DoOrth=T DoCkMO=T.
 Initial guess <Sx>= 0.0000 <Sy>= 0.0000 <Sz>= 0.5000 <S**2>= 0.7519 S= 0.5009
 Generating alternative initial guess.
 ExpMin= 1.83D-01 ExpMax= 3.22D+02 ExpMxC= 3.22D+02 IAcc=1 IRadAn=         1 AccDes= 0.00D+00
 Harris functional with IExCor=  402 and IRadAn=       1 diagonalized for initial guess.
 HarFok:  IExCor=  402 AccDes= 0.00D+00 IRadAn=         1 IDoV= 1 UseB2=F ITyADJ=14
 ICtDFT=  3500011 ScaDFX=  1.000000  1.000000  1.000000  1.000000
 FoFCou: FMM=F IPFlag=           0 FMFlag=      100000 FMFlg1=           0
         NFxFlg=           0 DoJE=T BraDBF=F KetDBF=T FulRan=T
         wScrn=  0.000000 ICntrl=     500 IOpCl=  0 I1Cent=   200000004 NGrid=           0
         NMat0=    1 NMatS0=      1 NMatT0=    0 NMatD0=    1 NMtDS0=    0 NMtDT0=    0
 Symmetry not used in FoFCou.
 Harris En= -191.337353415217    
 Leave Link  401 at Wed Jan  6 07:04:24 2021, MaxMem=    33554432 cpu:         0.3
 (Enter /apps/applications/gaussian/G09.D01/2/default/g09/l508.exe)
 Direct SCF.
 Tight linear equation convergence will be used.
 UB3LYP wavefunction.
 Quadratic Convergence SCF Method.
 Line search only if initial step raises energy.
 Two-electron integral symmetry not used.
 ReadGW:  IGet=1 IStart=         402 Next=         402 LGW=           0.
 Keep R1 and R2 ints in memory in canonical form, NReq=2054730.
 FoFCou: FMM=F IPFlag=           0 FMFlag=           0 FMFlg1=           0
         NFxFlg=           0 DoJE=F BraDBF=F KetDBF=F FulRan=T
         wScrn=  0.000000 ICntrl=     600 IOpCl=  0 I1Cent=           0 NGrid=           0
         NMat0=    1 NMatS0=   1081 NMatT0=    0 NMatD0=    1 NMtDS0=    0 NMtDT0=    0
 Symmetry not used in FoFCou.
 Iteration   1 EE= -191.320048043101                                    Grad=8.194D-02 Max rot=    1.0832 deg.
 Gradient too large for Newton-Raphson -- use scaled steepest descent instead.
 Alpha Gap=     0.477 HL deriv= 2.38D-03
  Beta Gap=     0.485 HL deriv= 1.10D-03
     ILin= 1 X=0.000D+00 Y=-1.913200480431D+02 DE= 0.00D+00 F= -8.46D-03
     ILin= 2 X=3.000D-01 Y=-1.913222258976D+02 DE=-2.18D-03 F= -6.05D-03
     ILin= 3 X=6.000D-01 Y=-1.913236800295D+02 DE=-3.63D-03 F= -3.64D-03
     ILin= 4 X=1.200D+00 Y=-1.913244121524D+02 DE=-4.36D-03 F=  1.20D-03
     Accept linear search using points  3 and  4.
     An  expanding polynomial of degree  4 produced  0.9671
 Iteration   2 EE= -191.324472882238     Delta-E=       -0.004424839137 Grad=4.119D-02 Max rot=    0.7887 deg.
 Gradient too large for Newton-Raphson -- use scaled steepest descent instead.
 Alpha Gap=     0.481 HL deriv= 1.16D-03
  Beta Gap=     0.496 HL deriv= 1.56D-03
     ILin= 1 X=0.000D+00 Y=-1.913244728822D+02 DE= 0.00D+00 F= -2.43D-03
     ILin= 2 X=5.000D-01 Y=-1.913252732632D+02 DE=-8.00D-04 F= -7.71D-04
     ILin= 3 X=1.100D+00 Y=-1.913251381496D+02 DE=-6.65D-04 F=  1.22D-03
     An  expanding polynomial of degree  3 produced  0.7322
 Iteration   3 EE= -191.325362694285     Delta-E=       -0.000889812047 Grad=3.045D-02 Max rot=    0.5594 deg.
 Gradient too large for Newton-Raphson -- use scaled steepest descent instead.
 Alpha Gap=     0.477 HL deriv= 6.42D-04
  Beta Gap=     0.486 HL deriv= 1.89D-03
     ILin= 1 X=0.000D+00 Y=-1.913253626943D+02 DE= 0.00D+00 F= -1.48D-03
     ILin= 2 X=8.000D-01 Y=-1.913257751304D+02 DE=-4.12D-04 F=  4.47D-04
     Accept linear search using points  1 and  2.
     An  expanding polynomial of degree  2 produced  0.5615
 Iteration   4 EE= -191.325813382772     Delta-E=       -0.000450688487 Grad=2.197D-02 Max rot=    0.4432 deg.
 Gradient too large for Newton-Raphson -- use scaled steepest descent instead.
 Alpha Gap=     0.481 HL deriv= 1.81D-04
  Beta Gap=     0.495 HL deriv= 9.27D-04
     ILin= 1 X=0.000D+00 Y=-1.913258133828D+02 DE= 0.00D+00 F= -7.29D-04
     ILin= 2 X=6.000D-01 Y=-1.913261028229D+02 DE=-2.89D-04 F= -2.36D-04
     ILin= 3 X=1.300D+00 Y=-1.913260671446D+02 DE=-2.54D-04 F=  3.38D-04
     An  expanding polynomial of degree  3 produced  0.8879
 Iteration   5 EE= -191.326136810350     Delta-E=       -0.000323427578 Grad=2.315D-02 Max rot=    0.4891 deg.
 Gradient too large for Newton-Raphson -- use scaled steepest descent instead.
 Alpha Gap=     0.478 HL deriv= 5.85D-04
  Beta Gap=     0.488 HL deriv= 1.54D-03
     ILin= 1 X=0.000D+00 Y=-1.913261368103D+02 DE= 0.00D+00 F= -8.45D-04
     ILin= 2 X=7.000D-01 Y=-1.913263327439D+02 DE=-1.96D-04 F=  2.85D-04
     Accept linear search using points  1 and  2.
     An  expanding polynomial of degree  2 produced  0.4538
 Iteration   6 EE= -191.326353991018     Delta-E=       -0.000217180668 Grad=1.358D-02 Max rot=    0.3351 deg.
 Gradient too large for Newton-Raphson -- use scaled steepest descent instead.
 Alpha Gap=     0.481 HL deriv= 2.02D-04
  Beta Gap=     0.494 HL deriv= 3.66D-04
     ILin= 1 X=0.000D+00 Y=-1.913263539910D+02 DE= 0.00D+00 F= -2.79D-04
     ILin= 2 X=6.000D-01 Y=-1.913264914240D+02 DE=-1.37D-04 F= -1.79D-04
     ILin= 3 X=1.300D+00 Y=-1.913265762439D+02 DE=-2.22D-04 F= -6.31D-05
     ILin= 4 X=2.500D+00 Y=-1.913265325658D+02 DE=-1.79D-04 F=  1.36D-04
     An  expanding polynomial of degree  4 produced  1.6804
 Iteration   7 EE= -191.326588245959     Delta-E=       -0.000234254941 Grad=2.072D-02 Max rot=    0.3913 deg.
 Gradient too large for Newton-Raphson -- use scaled steepest descent instead.
 Alpha Gap=     0.478 HL deriv= 4.30D-04
  Beta Gap=     0.488 HL deriv= 1.51D-03
     ILin= 1 X=0.000D+00 Y=-1.913265882460D+02 DE= 0.00D+00 F= -6.73D-04
     ILin= 2 X=9.000D-01 Y=-1.913265407575D+02 DE= 4.75D-05 F=  7.78D-04
     Reject lnstep minimum 4.221D-01 FVal=-1.913267466563D+02 Lims=  0.00D+00  9.00D-01
     ILin= 3 X=4.000D-01 Y=-1.913267284460D+02 DE=-1.40D-04 F= -2.78D-05
     A contracting polynomial of degree  3 produced  0.4173
     Minimum is close to point  3 DX=  1.73D-02 DF= -2.41D-07 DXR=  4.14D-02 DFR=  1.72D-03 which will be used.
 Iteration   8 EE= -191.326728446029     Delta-E=       -0.000140200070 Grad=8.097D-03 Max rot=    0.2296 deg.
 QCNR:  CnvC1=3.07D-09 CnvC2=3.07D-08
 LinEq1:  Iter=  0 NonCon=     1 RMS=8.05D-04 Max=1.84D-02 NDo=     1
 AX will form     1 AO Fock derivatives at one time.
 LinEq1:  Iter=  1 NonCon=     1 RMS=1.15D-04 Max=1.32D-03 NDo=     1
 LinEq1:  Iter=  2 NonCon=     1 RMS=1.32D-04 Max=1.60D-03 NDo=     1
 LinEq1:  Iter=  3 NonCon=     1 RMS=9.03D-05 Max=1.13D-03 NDo=     1
 LinEq1:  Iter=  4 NonCon=     1 RMS=4.93D-05 Max=5.99D-04 NDo=     1
 LinEq1:  Iter=  5 NonCon=     1 RMS=1.61D-05 Max=1.95D-04 NDo=     1
 LinEq1:  Iter=  6 NonCon=     1 RMS=1.55D-05 Max=2.21D-04 NDo=     1
 LinEq1:  Iter=  7 NonCon=     1 RMS=7.12D-06 Max=8.28D-05 NDo=     1
 LinEq1:  Iter=  8 NonCon=     1 RMS=3.34D-06 Max=3.28D-05 NDo=     1
 LinEq1:  Iter=  9 NonCon=     1 RMS=2.07D-06 Max=1.82D-05 NDo=     1
 LinEq1:  Iter= 10 NonCon=     1 RMS=7.18D-07 Max=6.74D-06 NDo=     1
 LinEq1:  Iter= 11 NonCon=     1 RMS=1.83D-07 Max=2.66D-06 NDo=     1
 LinEq1:  Iter= 12 NonCon=     1 RMS=3.30D-08 Max=4.01D-07 NDo=     1
 LinEq1:  Iter= 13 NonCon=     1 RMS=4.83D-09 Max=3.22D-08 NDo=     1
 LinEq1:  Iter= 14 NonCon=     0 RMS=1.04D-09 Max=7.13D-09 NDo=     1
 Linear equations converged to 3.074D-09 3.074D-08 after    14 iterations.
 Angle between quadratic step and gradient=  23.41 degrees.
     ILin= 1 X=0.000D+00 Y=-1.913267284460D+02 DE= 0.00D+00 F= -5.66D-04
     ILin= 2 X=1.000D+00 Y=-1.913270106724D+02 DE=-2.82D-04 F=  2.31D-06
     Accept linear search using points  1 and  2.
     An  expanding polynomial of degree  2 produced  0.9959
     Minimum is close to point  2 DX= -4.05D-03 DF= -4.69D-09 DXR=  4.07D-03 DFR=  1.66D-05 which will be used.
 Iteration   9 EE= -191.327010672369     Delta-E=       -0.000282226339 Grad=1.340D-04 Max rot=    0.0020 deg.
 QCNR:  CnvC1=1.34D-09 CnvC2=1.34D-08
 LinEq1:  Iter=  0 NonCon=     1 RMS=5.46D-06 Max=6.26D-05 NDo=     1
 LinEq1:  Iter=  1 NonCon=     1 RMS=4.36D-06 Max=6.94D-05 NDo=     1
 LinEq1:  Iter=  2 NonCon=     1 RMS=3.22D-06 Max=3.06D-05 NDo=     1
 LinEq1:  Iter=  3 NonCon=     1 RMS=2.62D-06 Max=2.36D-05 NDo=     1
 LinEq1:  Iter=  4 NonCon=     1 RMS=2.22D-06 Max=2.21D-05 NDo=     1
 LinEq1:  Iter=  5 NonCon=     1 RMS=8.22D-07 Max=1.24D-05 NDo=     1
 LinEq1:  Iter=  6 NonCon=     1 RMS=3.36D-07 Max=5.86D-06 NDo=     1
 LinEq1:  Iter=  7 NonCon=     1 RMS=1.48D-07 Max=1.37D-06 NDo=     1
 LinEq1:  Iter=  8 NonCon=     1 RMS=8.24D-08 Max=6.73D-07 NDo=     1
 LinEq1:  Iter=  9 NonCon=     1 RMS=2.15D-08 Max=1.46D-07 NDo=     1
 LinEq1:  Iter= 10 NonCon=     1 RMS=6.26D-09 Max=6.43D-08 NDo=     1
 LinEq1:  Iter= 11 NonCon=     1 RMS=1.65D-09 Max=1.65D-08 NDo=     1
 LinEq1:  Iter= 12 NonCon=     0 RMS=3.85D-10 Max=3.90D-09 NDo=     1
 Linear equations converged to 1.340D-09 1.340D-08 after    12 iterations.
 Angle between quadratic step and gradient=  49.98 degrees.
     ILin= 1 X=0.000D+00 Y=-1.913270106724D+02 DE= 0.00D+00 F= -3.65D-08
     ILin= 2 X=1.000D+00 Y=-1.913270106906D+02 DE=-1.83D-08 F= -1.33D-12
     Reject lnstep minimum 1.000D+00 FVal=-1.913270106906D+02 Lims=  0.00D+00  1.00D+00
     ILin= 3 X=2.000D+00 Y=-1.913270106724D+02 DE=-3.98D-12 F=  3.65D-08
     An  expanding polynomial of degree  3 produced  1.0001
     Minimum is close to point  2 DX=  5.48D-05 DF=  0.00D+00 DXR=  5.48D-05 DFR=  0.00D+00 which will be used.
 Iteration  10 EE= -191.327010690639     Delta-E=       -0.000000018270 Grad=7.711D-09 Max rot=    0.0000 deg.
 Rotation gradient small -- convergence achieved.
 SCF Done:  E(UB3LYP) =  -191.327010691     a.u. after   10 cycles
            Convg  =    0.7711D-08                    50 Fock formations.
              S**2 =  0.7520                  -V/T =  2.0085
 <Sx>= 0.0000 <Sy>= 0.0000 <Sz>= 0.5000 <S**2>= 0.7520 S= 0.5010
 <L.S>= 0.000000000000E+00
 Annihilation of the first spin contaminant:
 S**2 before annihilation     0.7520,   after     0.7500
 Leave Link  508 at Wed Jan  6 07:04:58 2021, MaxMem=    33554432 cpu:        33.7
 (Enter /apps/applications/gaussian/G09.D01/2/default/g09/l801.exe)
 DoSCS=F DFT=T ScalE2(SS,OS)=  1.000000  1.000000
 Range of M.O.s used for correlation:     1    46
 NBasis=    46 NAE=    16 NBE=    15 NFC=     0 NFV=     0
 NROrb=     46 NOA=    16 NOB=    15 NVA=    30 NVB=    31

 **** Warning!!: The largest beta MO coefficient is  0.10608420D+02

 Leave Link  801 at Wed Jan  6 07:04:58 2021, MaxMem=    33554432 cpu:         0.0
 (Enter /apps/applications/gaussian/G09.D01/2/default/g09/l1101.exe)
 Using compressed storage, NAtomX=     9.
 Will process     10 centers per pass.
 Leave Link 1101 at Wed Jan  6 07:04:58 2021, MaxMem=    33554432 cpu:         0.1
 (Enter /apps/applications/gaussian/G09.D01/2/default/g09/l1102.exe)
 Symmetrizing basis deriv contribution to polar:
 IMax=3 JMax=2 DiffMx= 0.00D+00
 Leave Link 1102 at Wed Jan  6 07:04:59 2021, MaxMem=    33554432 cpu:         0.1
 (Enter /apps/applications/gaussian/G09.D01/2/default/g09/l1110.exe)
 Forming Gx(P) for the SCF density, NAtomX=     9.
 Integral derivatives from FoFJK, PRISM(SPDF).
 Do as many integral derivatives as possible in FoFJK.
 G2DrvN: MDV=      33554256.
 G2DrvN: will do    10 centers at a time, making    1 passes.
 Calling FoFCou, ICntrl=  3107 FMM=F I1Cent=   0 AccDes= 0.00D+00.
 FoFJK:  IHMeth= 1 ICntrl=    3107 DoSepK=F KAlg= 0 I1Cent=   0 FoldK=F
 IRaf=         0 NMat=   1 IRICut=       1 DoRegI=T DoRafI=F ISym2E= 0.
 FoFCou: FMM=F IPFlag=           0 FMFlag=      100000 FMFlg1=           0
         NFxFlg=           0 DoJE=F BraDBF=F KetDBF=F FulRan=T
         wScrn=  0.000000 ICntrl=    3107 IOpCl=  1 I1Cent=           0 NGrid=           0
         NMat0=    1 NMatS0=      1 NMatT0=    0 NMatD0=    1 NMtDS0=    0 NMtDT0=    0
 Symmetry not used in FoFCou.
 End of G2Drv F.D. properties file   721 does not exist.
 End of G2Drv F.D. properties file   722 does not exist.
 End of G2Drv F.D. properties file   788 does not exist.
 Leave Link 1110 at Wed Jan  6 07:05:09 2021, MaxMem=    33554432 cpu:        10.0
 (Enter /apps/applications/gaussian/G09.D01/2/default/g09/l1002.exe)
 Minotr:  UHF open shell wavefunction.
          IDoAtm=111111111
          Direct CPHF calculation.
          Differentiating once with respect to electric field.
                with respect to dipole field.
          Differentiating once with respect to nuclear coordinates.
          Requested convergence is 1.0D-08 RMS, and 1.0D-07 maximum.
          Secondary convergence is 1.0D-12 RMS, and 1.0D-12 maximum.
          NewPWx=T KeepS1=F KeepF1=F KeepIn=T MapXYZ=F SortEE=F KeepMc=T.
          MDV=      33554246 using IRadAn=       2.
 Generate precomputed XC quadrature information.
 Keep R1 and R2 ints in memory in canonical form, NReq=2035813.
 FoFCou: FMM=F IPFlag=           0 FMFlag=           0 FMFlg1=           0
         NFxFlg=           0 DoJE=F BraDBF=F KetDBF=F FulRan=T
         wScrn=  0.000000 ICntrl=     600 IOpCl=  0 I1Cent=           0 NGrid=           0
         NMat0=    1 NMatS0=   1081 NMatT0=    0 NMatD0=    1 NMtDS0=    0 NMtDT0=    0
 Symmetry not used in FoFCou.
          Solving linear equations simultaneously, MaxMat=       0.
          There are    30 degrees of freedom in the 1st order CPHF.  IDoFFX=6 NUNeed=     3.
     27 vectors produced by pass  0 Test12= 3.15D-15 3.33D-09 XBig12= 8.95D+01 6.41D+00.
 AX will form    27 AO Fock derivatives at one time.
     27 vectors produced by pass  1 Test12= 3.15D-15 3.33D-09 XBig12= 2.54D+01 7.67D-01.
     27 vectors produced by pass  2 Test12= 3.15D-15 3.33D-09 XBig12= 2.10D-01 1.05D-01.
     27 vectors produced by pass  3 Test12= 3.15D-15 3.33D-09 XBig12= 9.19D-04 5.53D-03.
     27 vectors produced by pass  4 Test12= 3.15D-15 3.33D-09 XBig12= 2.19D-06 2.18D-04.
     26 vectors produced by pass  5 Test12= 3.15D-15 3.33D-09 XBig12= 4.71D-09 1.13D-05.
      6 vectors produced by pass  6 Test12= 3.15D-15 3.33D-09 XBig12= 1.23D-11 5.93D-07.
      3 vectors produced by pass  7 Test12= 3.15D-15 3.33D-09 XBig12= 2.16D-14 2.52D-08.
 InvSVY:  IOpt=1 It=  1 EMax= 8.88D-15
 Solved reduced A of dimension   170 with    30 vectors.
 FullF1:  Do perturbations    1 to     3.
 Isotropic polarizability for W=    0.000000       33.87 Bohr**3.
 End of Minotr F.D. properties file   721 does not exist.
 End of Minotr F.D. properties file   722 does not exist.
 End of Minotr F.D. properties file   788 does not exist.
 Leave Link 1002 at Wed Jan  6 07:05:18 2021, MaxMem=    33554432 cpu:         9.4
 (Enter /apps/applications/gaussian/G09.D01/2/default/g09/l701.exe)
 Compute integral second derivatives.
 ... and contract with generalized density number  0.
 Leave Link  701 at Wed Jan  6 07:05:18 2021, MaxMem=    33554432 cpu:         0.1
 (Enter /apps/applications/gaussian/G09.D01/2/default/g09/l702.exe)
 L702 exits ... SP integral derivatives will be done elsewhere.
 Leave Link  702 at Wed Jan  6 07:05:18 2021, MaxMem=    33554432 cpu:         0.1
 (Enter /apps/applications/gaussian/G09.D01/2/default/g09/l703.exe)
 Compute integral second derivatives, UseDBF=F ICtDFT=           0.
 Integral derivatives from FoFJK, PRISM(SPDF).
 Calling FoFJK, ICntrl=    100127 FMM=F ISym2X=0 I1Cent= 0 IOpClX= 1 NMat=1 NMatS=1 NMatT=0.
 FoFJK:  IHMeth= 1 ICntrl=  100127 DoSepK=F KAlg= 0 I1Cent=   0 FoldK=F
 IRaf=         0 NMat=   1 IRICut=       1 DoRegI=T DoRafI=F ISym2E= 0.
 FoFCou: FMM=F IPFlag=           0 FMFlag=      100000 FMFlg1=         800
         NFxFlg=           0 DoJE=F BraDBF=F KetDBF=F FulRan=T
         wScrn=  0.000000 ICntrl=  100127 IOpCl=  1 I1Cent=           0 NGrid=           0
         NMat0=    1 NMatS0=      1 NMatT0=    0 NMatD0=    1 NMtDS0=    0 NMtDT0=    0
 Symmetry not used in FoFCou.
 Leave Link  703 at Wed Jan  6 07:05:27 2021, MaxMem=    33554432 cpu:         8.8
 (Enter /apps/applications/gaussian/G09.D01/2/default/g09/l716.exe)
 Dipole        = 4.62507366D-01 4.29133739D-02-5.76936564D-01
 Polarizability= 3.79490516D+01-4.78413937D+00 4.08243020D+01
                 2.44882548D+00 5.49200095D+00 2.28303696D+01
 -------------------------------------------------------------------
 Center     Atomic                   Forces (Hartrees/Bohr)
 Number     Number              X              Y              Z
 -------------------------------------------------------------------
      1        6           0.003507059   -0.018887888   -0.003140778
      2        6          -0.006770047    0.042530278    0.009918122
      3        1           0.001070109    0.001616847    0.003487676
      4        1           0.001406534    0.004981774   -0.002253212
      5        1          -0.002491510    0.001361192   -0.000436815
      6        6           0.017382623   -0.044496715   -0.011753943
      7        1          -0.003282977    0.017435589    0.006268017
      8        8          -0.011399815   -0.009121110    0.009699809
      9        1           0.000578024    0.004580032   -0.011788875
 -------------------------------------------------------------------
 Cartesian Forces:  Max     0.044496715 RMS     0.014439979
 Force constants in Cartesian coordinates: 
                1             2             3             4             5 
      1  0.522393D+00
      2 -0.680396D-02  0.525324D+00
      3  0.160717D-02  0.569863D-02  0.514572D+00
      4 -0.790951D-01  0.645485D-01  0.199142D-01  0.181979D+00
      5  0.694642D-01 -0.253411D+00 -0.597501D-01 -0.329358D+00  0.113820D+01
      6  0.216473D-01 -0.577464D-01 -0.815587D-01 -0.955813D-01  0.296919D+00
      7 -0.603793D-01 -0.859865D-02 -0.562672D-01  0.714641D-03  0.267729D-02
      8 -0.854635D-02 -0.537829D-01 -0.383782D-01 -0.602356D-02 -0.152560D-01
      9 -0.563390D-01 -0.382521D-01 -0.270355D+00  0.154701D-02 -0.792470D-02
     10 -0.970744D-01 -0.758339D-01  0.620523D-01  0.517785D-02  0.975767D-02
     11 -0.756286D-01 -0.163446D+00  0.929243D-01 -0.108360D-01 -0.348601D-01
     12  0.617615D-01  0.927654D-01 -0.122170D+00 -0.762117D-02 -0.931663D-02
     13 -0.289323D+00  0.209671D-01 -0.278839D-01 -0.992570D-02  0.826538D-02
     14  0.223113D-01 -0.508439D-01  0.182308D-02  0.377014D-01 -0.115826D-01
     15 -0.275538D-01  0.169035D-02 -0.507579D-01  0.123740D-01 -0.151279D-02
     16  0.611060D-02  0.488016D-02  0.172136D-02 -0.836520D-01  0.219499D+00
     17 -0.445881D-02 -0.296843D-02 -0.807668D-03  0.258905D+00 -0.834086D+00
     18 -0.969462D-03 -0.193168D-02  0.480668D-02  0.762760D-01 -0.226486D+00
     19  0.410102D-02  0.144131D-02  0.345686D-04  0.131788D-02 -0.289357D-02
     20  0.102541D-02  0.123007D-02 -0.150729D-02 -0.121987D-02  0.802539D-02
     21 -0.636899D-04 -0.178993D-02  0.554838D-02 -0.822099D-03  0.392189D-02
     22 -0.585376D-02 -0.820440D-03 -0.118384D-02 -0.145920D-01  0.197234D-01
     23  0.231692D-02 -0.184129D-02 -0.711780D-03 -0.127849D-01  0.435501D-02
     24 -0.108042D-03 -0.859465D-03 -0.224300D-03 -0.769670D-02  0.376154D-02
     25 -0.879359D-03  0.219870D-03  0.528736D-05 -0.192493D-02  0.286506D-02
     26  0.319921D-03 -0.260884D-03  0.709001D-03 -0.931696D-03 -0.138777D-02
     27  0.180883D-04  0.425234D-03  0.139837D-03  0.161012D-02  0.387643D-03
                6             7             8             9            10 
      6  0.193259D+00
      7  0.140984D-01  0.639874D-01
      8 -0.373886D-01  0.779692D-02  0.659281D-01
      9 -0.833370D-02  0.617455D-01  0.465682D-01  0.300309D+00
     10 -0.990010D-02  0.265458D-02  0.645403D-02 -0.505364D-02  0.104891D+00
     11  0.155721D-01  0.283445D-02  0.433430D-02 -0.254468D-02  0.833898D-01
     12  0.759715D-02  0.156866D-01  0.236697D-01 -0.197686D-01 -0.690873D-01
     13  0.201940D-02 -0.769477D-02 -0.345081D-03 -0.822729D-03 -0.156057D-01
     14  0.264681D-02 -0.579206D-02 -0.485969D-03  0.569417D-03 -0.242399D-01
     15 -0.150196D-02 -0.338114D-01  0.335242D-02 -0.317593D-02  0.198991D-01
     16  0.627206D-01  0.880427D-04  0.101779D-02 -0.842051D-03 -0.581277D-03
     17 -0.223148D+00  0.117168D-02 -0.478155D-03  0.119430D-02  0.133815D-02
     18 -0.111231D+00 -0.551578D-03  0.467007D-03  0.431382D-03  0.129358D-02
     19 -0.443995D-03 -0.142172D-04  0.324442D-03  0.950537D-04 -0.143199D-03
     20  0.138429D-02  0.109908D-03 -0.290195D-03 -0.111320D-04 -0.217997D-03
     21  0.280966D-02 -0.448884D-03  0.120778D-02  0.168711D-03  0.568853D-03
     22  0.106681D-01  0.710766D-03 -0.115497D-02 -0.577003D-03  0.624261D-03
     23  0.114793D-02 -0.948319D-03  0.521808D-03  0.835239D-03 -0.480254D-03
     24 -0.335329D-02 -0.422351D-03  0.576886D-03  0.908141D-03 -0.254071D-04
     25 -0.522830D-02 -0.671201D-04  0.476773D-03  0.246833D-03  0.568390D-04
     26  0.612735D-03  0.748775D-03 -0.491071D-03 -0.434532D-03 -0.167555D-03
     27  0.231357D-02 -0.291208D-04 -0.752665D-04 -0.183405D-03  0.252601D-03
               11            12            13            14            15 
     11  0.189453D+00
     12 -0.101471D+00  0.133964D+00
     13  0.790911D-03 -0.228005D-02  0.321279D+00
     14  0.271486D-02 -0.412039D-02 -0.280565D-01  0.598728D-01
     15 -0.250621D-02  0.147096D-02  0.296041D-01 -0.117577D-03  0.528816D-01
     16  0.828602D-04  0.127417D-02  0.168540D-02 -0.187246D-02 -0.655791D-03
     17 -0.222507D-03 -0.129370D-02 -0.132434D-02 -0.697712D-04 -0.574035D-03
     18 -0.456228D-03 -0.401241D-03 -0.504788D-03 -0.616675D-03  0.642403D-03
     19  0.683781D-03  0.319916D-03  0.532658D-04 -0.835099D-03 -0.232302D-03
     20  0.475674D-03  0.171537D-03  0.168498D-04 -0.197325D-03 -0.552726D-04
     21 -0.925987D-03 -0.375032D-03  0.170856D-04 -0.134838D-03 -0.409773D-04
     22 -0.103306D-02 -0.877113D-04 -0.475670D-03  0.871203D-03  0.179003D-03
     23  0.124943D-02 -0.469024D-03 -0.373974D-03  0.832746D-03  0.384059D-04
     24 -0.248190D-03 -0.253634D-03 -0.229844D-03  0.225008D-03  0.534005D-03
     25 -0.284149D-03  0.340856D-04  0.736195D-05 -0.878121D-04  0.197148D-03
     26  0.301630D-03  0.645068D-04  0.595683D-04 -0.240852D-03 -0.315292D-03
     27 -0.343754D-03 -0.628944D-04  0.807474D-04 -0.274826D-03 -0.521808D-04
               16            17            18            19            20 
     16  0.139300D+00
     17 -0.352443D+00  0.124931D+01
     18 -0.100505D+00  0.349089D+00  0.158110D+00
     19 -0.465971D-01  0.129704D+00  0.389208D-01  0.442566D-01
     20  0.125868D+00 -0.408431D+00 -0.118177D+00 -0.125005D+00  0.399582D+00
     21  0.384343D-01 -0.119907D+00 -0.499468D-01 -0.369539D-01  0.118724D+00
     22 -0.135161D-01 -0.319028D-01 -0.104217D-01 -0.294023D-02 -0.315635D-03
     23  0.639380D-02 -0.359668D-02  0.288441D-02 -0.271788D-02 -0.159725D-03
     24 -0.206426D-02 -0.285670D-02 -0.207850D-02 -0.120087D-02 -0.400676D-03
     25 -0.283731D-02 -0.989884D-03 -0.353816D-02 -0.340672D-04 -0.262473D-03
     26 -0.342697D-02  0.546505D-03 -0.477338D-02 -0.702305D-03 -0.235107D-03
     27 -0.837007D-04 -0.169674D-02 -0.332964D-03 -0.539349D-03 -0.129271D-03
               21            22            23            24            25 
[...]
 Electronic               0.000              0.000              1.377
 Translational            0.889              2.981             38.044
 Rotational               0.889              2.981             24.787
 Vibrational             43.582             12.765             11.772
 Vibration     1          0.601              1.959              3.749
 Vibration     2          0.621              1.894              2.582
 Vibration     3          0.676              1.724              1.580
 Vibration     4          0.701              1.650              1.349
 Vibration     5          0.733              1.557              1.128
 Vibration     6          0.935              1.077              0.488
                       Q            Log10(Q)             Ln(Q)
 Total Bot       0.835976D-17        -17.077806        -39.323102
 Total V=0       0.272455D+14         13.435294         30.935908
 Vib (Bot)       0.423506D-29        -29.373141        -67.634156
 Vib (Bot)    1  0.239194D+01          0.378750          0.872104
 Vib (Bot)    2  0.128609D+01          0.109272          0.251609
 Vib (Bot)    3  0.708254D+00         -0.149811         -0.344952
 Vib (Bot)    4  0.604231D+00         -0.218797         -0.503798
 Vib (Bot)    5  0.511517D+00         -0.291140         -0.670375
 Vib (Bot)    6  0.263596D+00         -0.579062         -1.333339
 Vib (V=0)       0.138026D+02          1.139960          2.624855
 Vib (V=0)    1  0.294364D+01          0.468885          1.079647
 Vib (V=0)    2  0.187987D+01          0.274127          0.631201
 Vib (V=0)    3  0.136696D+01          0.135757          0.312591
 Vib (V=0)    4  0.128428D+01          0.108660          0.250199
 Vib (V=0)    5  0.121530D+01          0.084682          0.194988
 Vib (V=0)    6  0.106523D+01          0.027443          0.063189
 Electronic      0.200000D+01          0.301030          0.693147
 Translational   0.169300D+08          7.228656         16.644596
 Rotational      0.582972D+05          4.765648         10.973310
 
                                                    Gaussian input prepared by AS
 E
                                                             IR Spectrum
 
     3       3     33 3                             2                       11 1            11                                       
     5       3     11 0                             2                       55 4            10     9      7 6   5      3 3 2   1     
     0       0     00 4                             0                       54 6            09     2      2 7   7      5 1 7   5 8   
     2       6     64 5                             9                       03 2            81     3      4 9   9      9 2 3   7 6   
 
     X       X     XX X                             X                       XX X            XX     X      X X   X      X X X   X X   
     X       X      X X                             X                       XX                            X X   X      X X X         
     X       X                                      X                                                     X X   X      X   X         
     X       X                                      X                                                     X X   X      X   X         
     X                                              X                                                     X X   X          X         
     X                                                                                                    X X   X          X         
     X                                                                                                    X X   X          X         
     X                                                                                                    X X   X          X         
     X                                                                                                    X X   X          X         
     X                                                                                                    X X   X          X         
     X                                                                                                    X X   X          X         
     X                                                                                                      X   X          X         
     X                                                                                                          X          X         
     X                                                                                                          X          X         
                                                                                                                X          X         
                                                                                                                X                    
                                                                                                                X                    
                                                                                                                X                    
                                                                                                                X                    
                                                                                                                X                    
 
 -------------------------------------------------------------------
 Center     Atomic                   Forces (Hartrees/Bohr)
 Number     Number              X              Y              Z
 -------------------------------------------------------------------
      1        6          -0.000000380   -0.000000265   -0.000001876
      2        6           0.000000061   -0.000000112   -0.000000299
      3        1          -0.000000656    0.000000332   -0.000000520
      4        1           0.000000060    0.000000216   -0.000000780
      5        1          -0.000000297   -0.000000226   -0.000001361
      6        6           0.000000524   -0.000000294    0.000000979
      7        1           0.000000399   -0.000000210    0.000000822
      8        8           0.000000475    0.000000151    0.000002186
      9        1          -0.000000185    0.000000409    0.000000848
 -------------------------------------------------------------------
 Cartesian Forces:  Max     0.000002186 RMS     0.000000756
 Force constants in Cartesian coordinates: 
                1             2             3             4             5 
      1  0.537692D+00
      2  0.999284D-02  0.489217D+00
      3  0.106386D-02 -0.899979D-02  0.540630D+00
      4 -0.818207D-01  0.566263D-01  0.133560D-01  0.238156D+00
      5  0.529262D-01 -0.231087D+00 -0.390229D-01 -0.402337D+00  0.118867D+01
      6  0.125316D-01 -0.400494D-01 -0.786406D-01 -0.100882D+00  0.278965D+00
      7 -0.728172D-01  0.379875D-02  0.783945D-01 -0.678757D-02  0.371006D-02
      8  0.390010D-02 -0.476969D-01 -0.112175D-01  0.139172D-01 -0.970240D-02
      9  0.781818D-01 -0.106551D-01 -0.278569D+00  0.233105D-02 -0.683178D-02
     10 -0.200499D+00 -0.125085D+00  0.250340D-01  0.122436D-01  0.888920D-02
     11 -0.125480D+00 -0.146802D+00  0.203696D-01 -0.221103D-01 -0.349355D-01
     12  0.251346D-01  0.202152D-01 -0.512045D-01 -0.735047D-02 -0.691742D-02
     13 -0.189692D+00  0.510708D-01 -0.118794D+00 -0.879742D-02  0.763887D-02
     14  0.515374D-01 -0.644361D-01  0.421875D-01  0.291947D-01 -0.191421D-01
     15 -0.118540D+00  0.414571D-01 -0.144238D+00  0.939157D-02 -0.971534D-03
     16  0.345280D-02  0.345026D-02  0.506333D-03 -0.134606D+00  0.307959D+00
     17  0.487247D-02  0.161315D-02 -0.179463D-02  0.334922D+00 -0.907882D+00
     18  0.871956D-03 -0.825803D-03  0.625271D-02  0.840208D-01 -0.226533D+00
     19  0.452110D-02  0.697444D-03  0.550709D-03 -0.187571D-03  0.583550D-02
     20  0.108819D-02  0.863410D-03 -0.125660D-02 -0.425744D-02  0.920750D-02
     21  0.574624D-03 -0.950088D-03  0.523141D-02 -0.128576D-02  0.199981D-02
     22 -0.687124D-03 -0.883553D-03 -0.224049D-03 -0.168547D-01  0.150277D-01
     23  0.921863D-03 -0.178359D-02 -0.291898D-03 -0.674743D-02  0.461243D-02
     24  0.318477D-03 -0.323846D-03  0.384756D-03 -0.247499D-03 -0.176363D-02
     25 -0.150350D-03  0.332384D-03  0.112930D-03 -0.134569D-02  0.350514D-03
     26  0.241235D-03  0.112435D-03  0.262602D-04  0.792828D-03  0.260518D-03
     27 -0.137189D-03  0.131576D-03  0.153215D-03  0.666574D-03  0.107603D-02
                6             7             8             9            10 
      6  0.169661D+00
      7  0.967906D-02  0.784885D-01
      8 -0.378200D-01 -0.777374D-02  0.576683D-01
      9 -0.474818D-02 -0.881236D-01  0.158793D-01  0.306815D+00
     10 -0.283864D-02 -0.877605D-02 -0.566350D-02  0.388065D-03  0.218078D+00
     11  0.165943D-02  0.213227D-02  0.151745D-02  0.583978D-03  0.138114D+00
     12 -0.996228D-03  0.258905D-01  0.221026D-01 -0.369772D-02 -0.274223D-01
     13 -0.228374D-02  0.901331D-02 -0.438489D-02  0.729404D-02 -0.199635D-01
     14  0.209020D-01 -0.225517D-02 -0.204671D-03 -0.475221D-03 -0.162487D-01
     15  0.684972D-02 -0.256831D-01  0.873483D-02 -0.202866D-01  0.427819D-02
     16  0.777925D-01  0.926440D-03  0.192992D-03 -0.153357D-03 -0.131552D-02
     17 -0.226818D+00 -0.198286D-04 -0.130167D-02  0.155306D-02  0.913747D-03
     18 -0.957974D-01  0.853312D-04  0.129492D-02  0.401274D-03  0.806531D-03
     19  0.144457D-02  0.108617D-03 -0.149263D-03 -0.271527D-04 -0.397968D-03
     20  0.123663D-02  0.157022D-03 -0.356112D-03 -0.305758D-04 -0.107638D-03
     21  0.387591D-02 -0.328918D-03  0.104412D-02  0.529479D-04  0.105488D-03
     22  0.607763D-02 -0.151627D-03  0.186123D-05  0.131646D-03  0.722861D-03
     23  0.132020D-02  0.191852D-03  0.112142D-03  0.332167D-05 -0.116618D-02
     24 -0.174560D-02  0.112632D-03  0.892716D-05  0.624982D-04 -0.362051D-03
     25 -0.152066D-02 -0.444386D-05 -0.407801D-04 -0.225430D-04 -0.928485D-04
     26  0.604559D-03  0.587853D-04 -0.361878D-04 -0.270282D-04  0.353935D-03
     27  0.154178D-02 -0.264429D-04 -0.271845D-04 -0.302525D-04  0.106843D-04
               11            12            13            14            15 
     11  0.170415D+00
     12 -0.208544D-01  0.534680D-01
     13  0.750996D-02 -0.169004D-01  0.208669D+00
     14  0.685245D-02 -0.148769D-01 -0.610457D-01  0.775283D-01
     15 -0.195121D-02  0.197345D-02  0.130928D+00 -0.454669D-01  0.156423D+00
     16  0.106072D-03  0.871490D-03  0.837954D-03 -0.548015D-03 -0.697022D-04
     17  0.629209D-03 -0.293077D-03 -0.954386D-03 -0.740052D-03 -0.159656D-02
     18 -0.180593D-03  0.795262D-03 -0.604524D-03 -0.131890D-02 -0.357959D-03
     19  0.973434D-03  0.169591D-03  0.196341D-03 -0.642042D-03 -0.305910D-03
     20  0.303856D-03  0.629604D-04  0.679651D-04  0.381890D-04 -0.289593D-04
     21 -0.235646D-03 -0.649800D-04  0.566363D-04 -0.859224D-03 -0.274041D-03
     22 -0.149247D-02 -0.449380D-03 -0.392228D-03  0.134414D-03  0.000000D+00
     23  0.269337D-02  0.293184D-03  0.157140D-03  0.364143D-03 -0.120268D-03
     24  0.624972D-03 -0.562733D-04  0.194008D-03  0.219264D-04 -0.178785D-04
     25  0.247003D-03  0.563908D-04  0.128136D-03 -0.126875D-03  0.151415D-05
     26 -0.673577D-03  0.267874D-03 -0.597725D-04 -0.260116D-03 -0.565602D-04
     27 -0.160835D-04 -0.217044D-03  0.110410D-03 -0.114338D-03 -0.720686D-04
               16            17            18            19            20 
     16  0.165741D+00
     17 -0.420653D+00  0.128760D+01
     18 -0.105467D+00  0.326003D+00  0.143417D+00
     19 -0.424508D-01  0.954404D-01  0.253672D-01  0.436187D-01
     20  0.102324D+00 -0.374265D+00 -0.959989D-01 -0.979764D-01  0.364676D+00
     21  0.274104D-01 -0.971897D-01 -0.516860D-01 -0.265625D-01  0.963661D-01
     22  0.106494D-01 -0.132235D-01 -0.159703D-02 -0.524705D-02 -0.929842D-03
     23  0.865335D-02 -0.474740D-02 -0.147232D-03 -0.318997D-02 -0.115777D-03
     24 -0.341475D-02  0.812473D-03 -0.379041D-02 -0.294795D-03 -0.332241D-03
     25 -0.323483D-02 -0.129722D-02 -0.348336D-02 -0.161325D-03 -0.365952D-03
     26 -0.148487D-02 -0.910663D-03 -0.229321D-02 -0.989122D-03 -0.352885D-03
     27  0.252405D-02 -0.676338D-03  0.765613D-03 -0.341683D-03 -0.184442D-04
               21            22            23            24            25 
     21  0.423364D-01
     22  0.730215D-05  0.187248D-01
     23  0.244753D-03  0.208567D-02  0.319597D-02
     24  0.107842D-02  0.775732D-02 -0.320064D-01  0.394934D+00
     25  0.227485D-04 -0.676434D-02 -0.906312D-03 -0.406334D-02  0.116257D-01
     26 -0.420154D-03 -0.720258D-03 -0.433128D-02  0.329578D-01  0.180724D-02
     27 -0.550002D-03 -0.117027D-01  0.307043D-01 -0.390850D+00  0.889632D-02
               26            27 
     26  0.619175D-02
     27 -0.310595D-01  0.389259D+00
 Leave Link  716 at Wed Jan  6 07:17:32 2021, MaxMem=    33554432 cpu:         0.1
 (Enter /apps/applications/gaussian/G09.D01/2/default/g09/l9999.exe)
 1\1\GINC-DC1S0B3B\Freq\UB3LYP\3-21G\C3H5O1(2)\CHMRSH\06-Jan-2021\0\\#P
  b3lyp/3-21G scf=qc opt(calcall, ts, noeigentest, cartesian,maxcycle=1
 00) NoSymm\\Gaussian input prepared by ASE\\0,2\C,-3.7317547865,-1.013
 133474,6.4891785818\C,-4.1762679156,0.3411276748,6.8080435245\H,-3.377
 4302975,-1.0832689508,5.4539484093\H,-4.5658585258,-1.7124424814,6.621
 6935351\H,-2.9153059297,-1.32134564,7.1529768729\C,-4.6011688274,1.439
 9842594,7.0940119958\H,-4.8734403722,2.4280861577,7.3671368626\O,-6.71
 28071907,0.5617729131,7.1439245968\H,-6.7473002133,0.6421193267,6.1345
 669173\\Version=ES64L-G09RevD.01\HF=-191.3314658\S2=0.754037\S2-1=0.\S
 2A=0.750009\RMSD=0.000e+00\RMSF=7.564e-07\ZeroPoint=0.0663376\Thermal=
 0.0722852\Dipole=0.4105625,-0.163488,-0.6833511\DipoleDeriv=0.0834783,
 -0.0241512,-0.0083475,0.0361975,0.032941,-0.0048358,-0.0275006,0.02268
 97,0.0670548,-0.0060235,-0.0659142,-0.0190367,-0.4562786,0.1039849,0.0
 509679,-0.0683339,-0.0074702,-0.0808547,0.0717618,0.0274023,0.0583371,
 0.0353234,0.0427332,-0.0172212,0.0695143,-0.0311356,-0.0637905,-0.0124
 416,-0.0637527,0.0226961,-0.0168055,-0.0163287,-0.006133,0.0325498,-0.
 0085786,0.1063301,-0.0065571,0.0637415,-0.0773847,0.0692821,0.0344844,
 0.0106116,-0.0658741,0.0120702,0.0434461,-0.5073038,0.0222718,-0.00400
 55,0.2729887,-0.3546647,-0.0422998,0.0779422,0.0403479,-0.2120973,0.22
 2322,-0.0239849,-0.0035294,0.0008303,0.207006,0.0050978,-0.000287,-0.0
 097879,0.2210747,-0.1513944,0.0835103,0.0521504,0.0554283,-0.3196136,-
 0.0214893,-0.0281043,-0.0507633,0.0458282,0.3061583,-0.0191228,-0.0208
 797,0.0030336,0.2694575,0.0253018,0.0100936,0.0326278,-0.1269913\Polar
 =40.6356654,-7.5509455,38.4532521,-1.7108599,5.170445,22.3332167\PG=C0
 1 [X(C3H5O1)]\NImag=1\\0.53769196,0.00999284,0.48921682,0.00106386,-0.
 00899979,0.54062994,-0.08182070,0.05662632,0.01335596,0.23815638,0.052
 92621,-0.23108689,-0.03902293,-0.40233736,1.18866833,0.01253158,-0.040
 04936,-0.07864065,-0.10088228,0.27896483,0.16966060,-0.07281718,0.0037
 9875,0.07839450,-0.00678757,0.00371006,0.00967906,0.07848850,0.0039001
 0,-0.04769688,-0.01121751,0.01391722,-0.00970240,-0.03782002,-0.007773
 74,0.05766834,0.07818182,-0.01065506,-0.27856937,0.00233105,-0.0068317
 8,-0.00474818,-0.08812357,0.01587931,0.30681537,-0.20049858,-0.1250852
 2,0.02503402,0.01224361,0.00888920,-0.00283864,-0.00877605,-0.00566350
 ,0.00038807,0.21807796,-0.12548031,-0.14680231,0.02036959,-0.02211035,
 -0.03493548,0.00165943,0.00213227,0.00151745,0.00058398,0.13811439,0.1
 7041504,0.02513457,0.02021524,-0.05120450,-0.00735047,-0.00691742,-0.0
 0099623,0.02589047,0.02210261,-0.00369772,-0.02742229,-0.02085443,0.05
 346804,-0.18969193,0.05107077,-0.11879427,-0.00879742,0.00763887,-0.00
 228374,0.00901331,-0.00438489,0.00729404,-0.01996346,0.00750996,-0.016
 90037,0.20866930,0.05153741,-0.06443614,0.04218751,0.02919469,-0.01914
 211,0.02090205,-0.00225517,-0.00020467,-0.00047522,-0.01624874,0.00685
 245,-0.01487694,-0.06104567,0.07752831,-0.11853970,0.04145713,-0.14423
 752,0.00939157,-0.00097153,0.00684972,-0.02568306,0.00873483,-0.020286
 56,0.00427819,-0.00195121,0.00197345,0.13092781,-0.04546687,0.15642286
 ,0.00345280,0.00345026,0.00050633,-0.13460635,0.30795929,0.07779248,0.
 00092644,0.00019299,-0.00015336,-0.00131552,0.00010607,0.00087149,0.00
 083795,-0.00054802,-0.00006970,0.16574093,0.00487247,0.00161315,-0.001
 79463,0.33492151,-0.90788190,-0.22681833,-0.00001983,-0.00130167,0.001
 55306,0.00091375,0.00062921,-0.00029308,-0.00095439,-0.00074005,-0.001
 59656,-0.42065318,1.28760396,0.00087196,-0.00082580,0.00625271,0.08402
 084,-0.22653338,-0.09579736,0.00008533,0.00129492,0.00040127,0.0008065
 3,-0.00018059,0.00079526,-0.00060452,-0.00131890,-0.00035796,-0.105466
 91,0.32600309,0.14341691,0.00452110,0.00069744,0.00055071,-0.00018757,
 0.00583550,0.00144457,0.00010862,-0.00014926,-0.00002715,-0.00039797,0
 .00097343,0.00016959,0.00019634,-0.00064204,-0.00030591,-0.04245082,0.
 09544043,0.02536716,0.04361867,0.00108819,0.00086341,-0.00125660,-0.00
 425744,0.00920750,0.00123663,0.00015702,-0.00035611,-0.00003058,-0.000
 10764,0.00030386,0.00006296,0.00006797,0.00003819,-0.00002896,0.102324
 10,-0.37426463,-0.09599889,-0.09797641,0.36467645,0.00057462,-0.000950
 09,0.00523141,-0.00128576,0.00199981,0.00387591,-0.00032892,0.00104412
 ,0.00005295,0.00010549,-0.00023565,-0.00006498,0.00005664,-0.00085922,
 -0.00027404,0.02741036,-0.09718969,-0.05168605,-0.02656248,0.09636612,
 0.04233638,-0.00068712,-0.00088355,-0.00022405,-0.01685470,0.01502771,
 0.00607763,-0.00015163,0.00000186,0.00013165,0.00072286,-0.00149247,-0
 .00044938,-0.00039223,0.00013441,-0.00000072,0.01064938,-0.01322353,-0
 .00159703,-0.00524705,-0.00092984,0.00000730,0.01872483,0.00092186,-0.
 00178359,-0.00029190,-0.00674743,0.00461243,0.00132020,0.00019185,0.00
 011214,0.00000332,-0.00116618,0.00269337,0.00029318,0.00015714,0.00036
 414,-0.00012027,0.00865335,-0.00474740,-0.00014723,-0.00318997,-0.0001
 1578,0.00024475,0.00208567,0.00319597,0.00031848,-0.00032385,0.0003847
 6,-0.00024750,-0.00176363,-0.00174560,0.00011263,0.00000893,0.00006250
 ,-0.00036205,0.00062497,-0.00005627,0.00019401,0.00002193,-0.00001788,
 -0.00341475,0.00081247,-0.00379041,-0.00029480,-0.00033224,0.00107842,
 0.00775732,-0.03200639,0.39493434,-0.00015035,0.00033238,0.00011293,-0
 .00134569,0.00035051,-0.00152066,-0.00000444,-0.00004078,-0.00002254,-
 0.00009285,0.00024700,0.00005639,0.00012814,-0.00012688,0.00000151,-0.
 00323483,-0.00129722,-0.00348336,-0.00016133,-0.00036595,0.00002275,-0
 .00676434,-0.00090631,-0.00406334,0.01162569,0.00024124,0.00011244,0.0
 0002626,0.00079283,0.00026052,0.00060456,0.00005879,-0.00003619,-0.000
 02703,0.00035394,-0.00067358,0.00026787,-0.00005977,-0.00026012,-0.000
 05656,-0.00148487,-0.00091066,-0.00229321,-0.00098912,-0.00035288,-0.0
 0042015,-0.00072026,-0.00433128,0.03295781,0.00180724,0.00619175,-0.00
 013719,0.00013158,0.00015322,0.00066657,0.00107603,0.00154178,-0.00002
 644,-0.00002718,-0.00003025,0.00001068,-0.00001608,-0.00021704,0.00011
 041,-0.00011434,-0.00007207,0.00252405,-0.00067634,0.00076561,-0.00034
 168,-0.00001844,-0.00055000,-0.01170273,0.03070433,-0.39084985,0.00889
 632,-0.03105954,0.38925861\\0.00000038,0.00000026,0.00000188,-0.000000
 06,0.00000011,0.00000030,0.00000066,-0.00000033,0.00000052,-0.00000006
 ,-0.00000022,0.00000078,0.00000030,0.00000023,0.00000136,-0.00000052,0
 .00000029,-0.00000098,-0.00000040,0.00000021,-0.00000082,-0.00000047,-
 0.00000015,-0.00000219,0.00000019,-0.00000041,-0.00000085\\\@


 "WHERE SHALL I START, PLEASE YOUR MAJESTY?" HE ASKED.
 "BEGIN AT THE BEGINNING," THE KING SAID GRAVELY,
 "AND GO ON TILL YOU COME TO THE END: THEN STOP." 

                                      -- LEWIS CARROLL
 Job cpu time:       0 days  0 hours 14 minutes  2.3 seconds.
 File lengths (MBytes):  RWF=      9 Int=      0 D2E=      0 Chk=      1 Scr=      1
 Normal termination of Gaussian 09 at Wed Jan  6 07:17:32 2021.
