9
Properties=species:S:1:pos:R:3 energy=-5228.932410410564 pbc="F F F"
C       -3.85169900      -0.79940200       6.28686700
C       -4.64122300       0.43583200       6.64261400
H       -3.86362000      -0.94124000       5.20038600
H       -4.31997600      -1.67778400       6.74497900
H       -2.82113500      -0.71137300       6.63333600
C       -4.13957900       1.46941300       7.28396500
H       -4.41467700       2.43776800       7.66454000
O       -5.97095200       0.30024800       6.18476700
H       -6.48417100       1.11862000       6.42340400
