9
Properties=species:S:1:pos:R:3 energy=-5226.4400540483275 pbc="F F F"
C       -1.01623991      -0.15249064      -0.78421878
C        0.23613665       0.23594639      -0.19959918
H       -1.87390495       0.13798114      -0.15288452
H       -1.06964305      -1.25084445      -0.91289907
H       -1.16296198       0.30417287      -1.77832339
C        1.32316498       0.70480518       0.17902507
H        2.22874649       1.14663792       0.40980512
O        0.86784510      -0.70625977       1.19798217
H        0.46685666      -0.41994864       2.04111258
