24
Properties=species:S:1:pos:R:3:momenta:R:3:forces:R:3 pbc="F F F"
O       -1.91278562       2.75596604       3.00212393      -0.56481942       2.71025272       0.10522660      -0.00747689      -0.01288761       0.00857117
C       -3.04161727       2.95615753       2.65297089       0.34516553       1.45239586      -1.93182076       0.03264995       0.04874802       0.00617568
C       -4.32770955       2.91518423       3.41254892      -2.13094338      -1.10753266      -0.37834658       0.01032606      -0.01842249      -0.02848554
C       -4.87858860       1.49059784       3.56993717      -0.63736779       0.18138096       1.36646391      -0.03606408       0.00078618       0.08383271
C       -4.71292147       0.53289045       2.38693146      -0.17026086       2.97215862      -0.06667831       0.01970900       0.08289287      -0.01306880
C       -5.40743360       0.93568633       1.12360675      -0.98828939      -0.21442359      -1.03530222      -1.75317996       1.31793547      -1.15698086
H       -4.99512225       2.29116729       0.81251621       0.42170332       0.21742750       0.03127411      -0.33137023      -0.38470372       0.53085793
C       -4.95761831       0.28457144      -0.17991892       0.99147698       1.00286053       1.05119355       0.04600389       0.04838458      -0.23653201
O       -4.27347945      -0.70967654      -0.16729095      -4.21675596       0.16196044      -1.03114073      -0.03891336      -0.03604681       0.01153806
C       -5.36258447       1.01584733      -1.41875347       1.28736916       0.07981451      -0.39495966       0.06223180       0.02071431      -0.03014269
H       -8.26883270      -0.07972915       0.54454903      -0.01158206      -0.43404588       0.18084197       0.06800613       0.09470149       0.03790707
H       -4.16001784       3.34868233       4.42749309       0.09691015       0.11804532      -0.06709191      -0.01489659       0.01757440      -0.06947039
H       -5.08062887       3.58166093       2.92531093       0.06345377       0.34922986      -0.10741500       0.00658535      -0.06004824      -0.02452372
H       -4.37913288       1.02941941       4.44687486      -0.13531367      -0.00635363      -0.00115784       0.01250237      -0.07790849       0.09066192
H       -5.95437668       1.55950270       3.83227944      -0.40052893      -0.50801892      -0.08891658      -0.04939307       0.02727065       0.00787163
H       -3.62831367       0.38612288       2.15560350      -0.22266430       0.10573512      -0.68057363      -0.01916192      -0.02585111       0.02455401
H       -5.06948525      -0.48070656       2.69214561      -0.01122826      -0.53337687       0.25705363       0.00908078       0.01509798      -0.01062927
H       -5.03218066       0.49807281      -2.33220406       0.54672256      -0.12895163       0.26043655       0.03476692      -0.02633524       0.04369834
H       -6.45582852       1.14951957      -1.50813303       0.00879368      -0.14321760      -0.04859185       0.00369547      -0.06704761       0.08410206
H       -4.93661625       2.03348751      -1.44549685       0.26419963      -0.49136316      -0.03517153       0.02851836      -0.02913953      -0.02457344
O       -6.84722709       0.94815577       1.33311179       0.47854696      -1.01556841       1.13707594       0.36966290      -0.11405243      -1.15261987
O       -7.72262010       0.63563762       0.11015451      -0.05370004       0.76193024       0.00944798       2.05818188       0.39447852       1.77795127
O       -4.35339001       3.55646197       0.85629839      -1.90892831       0.04107249       0.26152953      -0.61247443      -1.22131972      -0.05846245
O       -3.13772560       3.26270848       1.22607023      -0.37864003      -1.09256463      -2.00916952       0.10100965       0.00517853       0.09776720
