24
Properties=species:S:1:pos:R:3 energy=-2749.5966196006257 pbc="F F F"
O       -2.48711800       1.96905600       4.14409700
C       -1.87195200       1.93742000       3.12597500
C       -2.14936500       1.42628000       1.76008600
C       -3.54387300       1.82796100       1.27065900
C       -3.62254600       3.32083200       0.92887200
C       -5.02945500       3.74358500       0.49637500
H       -5.10153200       4.84753900       0.35106000
C       -5.47696000       3.04734200      -0.80619000
O       -4.77303100       3.11049300      -1.78764800
C       -6.79072200       2.34405500      -0.76732300
H       -6.95118100       4.58140000       2.52509900
H       -1.36108300       1.78007800       1.04828400
H       -2.04916500       0.31621700       1.76357700
H       -3.80017800       1.22172600       0.37683400
H       -4.30676500       1.57710500       2.04008000
H       -3.31350200       3.93053100       1.80211300
H       -2.91346800       3.56709800       0.10717900
H       -7.58677900       2.99932900      -0.37241100
H       -7.09563100       1.98710200      -1.76021600
H       -6.76224800       1.48109600      -0.08473900
O       -5.88287700       3.35605500       1.60596600
O       -6.99095300       4.25283500       1.57666700
O        0.21268000       2.61905300       2.33868100
O       -0.46884600       2.56445300       3.31923000
24
Properties=species:S:1:pos:R:3 energy=-2749.5921278705896 pbc="F F F"
O       -2.51879003       1.90804705       4.13524115
C       -1.89347060       1.90991905       3.12408348
C       -2.14417900       1.42315865       1.74615772
C       -3.53674168       1.83736874       1.25809940
C       -3.61072713       3.33035707       0.91304314
C       -5.02385756       3.75027607       0.49152864
H       -5.09970774       4.85283270       0.34346474
C       -5.47970261       3.04732775      -0.80367370
O       -4.78682977       3.11749768      -1.79322053
C       -6.78463477       2.32905878      -0.75459916
H       -6.93806526       4.57211124       2.54909130
H       -1.34404686       1.79061447       1.05568100
H       -2.04139856       0.31550161       1.72551418
H       -3.80431314       1.22921739       0.37341261
H       -4.30414503       1.58421974       2.01797671
H       -3.29856783       3.93904028       1.78471411
H       -2.90797026       3.57655386       0.08817067
H       -7.59386237       2.98065465      -0.38610540
H       -7.07710817       1.94181945      -1.73819543
H       -6.75015132       1.48655517      -0.04934369
O       -5.86560393       3.36705916       1.61118687
O       -6.96178924       4.28144572       1.59333811
O        0.17298486       2.65501210       2.37289622
O       -0.52387200       2.58299260       3.34384486
24
Properties=species:S:1:pos:R:3 energy=-2749.579911150677 pbc="F F F"
O       -2.55027869       1.84757186       4.12497238
C       -1.91520525       1.88255718       3.12161163
C       -2.13903753       1.42024346       1.73247051
C       -3.52955147       1.84684958       1.24551940
C       -3.59906600       3.33986179       0.89716750
C       -5.01826711       3.75668297       0.48680427
H       -5.09786908       4.85787871       0.33600325
C       -5.48242795       3.04709361      -0.80112099
O       -4.80090697       3.12420354      -1.79861295
C       -6.77829813       2.31397166      -0.74164830
H       -6.92465530       4.56353230       2.57256037
H       -1.32758795       1.80112856       1.06378994
H       -2.03337487       0.31528856       1.68798349
H       -3.80818914       1.23672743       0.36953694
H       -4.30031824       1.59344918       1.99679857
H       -3.28370554       3.94754998       1.76734299
H       -2.90277739       3.58625295       0.06907379
H       -7.60043900       2.96117881      -0.39949278
H       -7.05810672       1.89690812      -1.71533276
H       -6.73821938       1.49232875      -0.01433885
O       -5.84817588       3.37780387       1.61644519
O       -6.93177478       4.30959929       1.61058697
O        0.13158450       2.68994251       2.40680734
O       -0.57990213       2.60003633       3.36737909
24
Properties=species:S:1:pos:R:3 energy=-2749.56162543682 pbc="F F F"
O       -2.58157724       1.78765563       4.11331129
C       -1.93714870       1.85535173       3.11856396
C       -2.13395227       1.41754046       1.71902538
C       -3.52229292       1.85639653       1.23290074
C       -3.58756773       3.34934031       0.88125441
C       -5.01268780       3.76281232       0.48219780
H       -5.09602323       4.86268190       0.32867249
C       -5.48513634       3.04664473      -0.79852872
O       -4.81525209       3.13060964      -1.80382076
C       -6.77171725       2.29880686      -0.72847528
H       -6.91095235       4.55565665       2.59549551
H       -1.31172105       1.81162472       1.07258756
H       -2.02510314       0.31557414       1.65100984
H       -3.81178363       1.24425599       0.36520071
H       -4.29533523       1.60472584       1.97659369
H       -3.26892512       3.95605646       1.75000303
H       -2.89788665       3.59618268       0.04990063
H       -7.60650186       2.94092064      -0.41256235
H       -7.03863043       1.85240322      -1.69164545
H       -6.72646300       1.49840346       0.02026907
O       -5.83061232       3.38828797       1.62172889
O       -6.90094378       4.33728172       1.62837432
O        0.08854172       2.72383783       2.44040147
O       -0.63687759       2.61558956       3.38984877
24
Properties=species:S:1:pos:R:3 energy=-2749.5386305282627 pbc="F F F"
O       -2.61267889       1.72832355       4.10027849
C       -1.95929369       1.82832008       3.11494500
C       -2.12893490       1.41505564       1.70582337
C       -3.51495659       1.86600257       1.22022519
C       -3.57623745       3.35878679       0.86531322
C       -5.00712380       3.76867073       0.47770515
H       -5.09417741       4.86724716       0.32146945
C       -5.48782810       3.04598628      -0.79589376
O       -4.82985467       3.13671503      -1.80883949
C       -6.76489730       2.28357759      -0.71508494
H       -6.89695764       4.54847778       2.61788602
H       -1.29646095       1.82210745       1.08205060
H       -2.01659261       0.31635465       1.61461816
H       -3.81507419       1.25180298       0.36039761
H       -4.28924654       1.61798223       1.95741018
H       -3.25423657       3.96455605       1.73269759
H       -2.89329528       3.60633044       0.03066345
H       -7.61204396       2.91989930      -0.42530335
H       -7.01868308       1.80833999      -1.66715098
H       -6.71489301       1.50476605       0.05447363
O       -5.81293274       3.39851032       1.62702588
O       -6.86933036       4.36447905       1.64666089
O        0.04391933       2.75669163       2.47366570
O       -0.69473958       2.62965768       3.41126993
24
Properties=species:S:1:pos:R:3 energy=-2749.512021965352 pbc="F F F"
O       -2.64357690       1.66960080       4.08589458
C       -1.98163298       1.80147956       3.11075926
C       -2.12399712       1.41279503       1.69286550
C       -3.50753301       1.87566069       1.20747451
C       -3.56508028       3.36819538       0.84935327
C       -5.00157926       3.77426483       0.47332223
H       -5.09233882       4.87157936       0.31439110
C       -5.49050356       3.04512342      -0.79321297
O       -4.84470420       3.14251877      -1.81366463
C       -6.75784348       2.26829705      -0.70148217
H       -6.88267241       4.54198917       2.63972121
H       -1.28182246       1.83258120       1.09215578
H       -2.00785249       0.31762638       1.57883335
H       -3.81803843       1.25936828       0.35512134
H       -4.28210276       1.63315088       1.93929616
H       -3.23964988       3.97304511       1.71543008
H       -2.88900055       3.61668364       0.01137453
H       -7.61705829       2.89813394      -0.43770498
H       -6.99826845       1.76475366      -1.64186680
H       -6.70352021       1.51140327       0.08826837
O       -5.79515660       3.40846975       1.63232408
O       -6.83696869       4.39117729       1.66540743
O       -0.00221987       2.78849750       2.50658713
O       -0.75342932       2.64224604       3.43165864
24
Properties=species:S:1:pos:R:3 energy=-2749.482668331837 pbc="F F F"
O       -2.67426450       1.61151258       4.07018015
C       -2.00415931       1.77484754       3.10601126
C       -2.11915060       1.41076463       1.68015282
C       -3.50001276       1.88536389       1.19463045
C       -3.55410133       3.37756024       0.83338390
C       -4.99605836       3.77960122       0.46904495
H       -5.09051468       4.87568338       0.30743441
C       -5.49316305       3.04406132      -0.79048322
O       -4.85979019       3.14801993      -1.81829170
C       -6.75056096       2.25297846      -0.68767181
H       -6.86809788       4.53618429       2.66099037
H       -1.26782037       1.84305048       1.10287985
H       -1.99889201       0.31938562       1.54368032
H       -3.82065395       1.26695179       0.34936560
H       -4.27395445       1.65016431       1.92229974
H       -3.22517503       3.98151997       1.69820386
H       -2.88499969       3.62722967      -0.00795387
H       -7.62153782       2.87564372      -0.44975647
H       -6.97739032       1.72167945      -1.61581038
H       -6.69235542       1.51830184       0.12164686
O       -5.77730337       3.41816513       1.63761140
O       -6.80389289       4.41736247       1.68457467
O       -0.04981306       2.81924902       2.53915287
O       -0.81288800       2.65336003       3.45103096
24
Properties=species:S:1:pos:R:3 energy=-2749.451250833455 pbc="F F F"
O       -2.70473494       1.55408408       4.05315580
C       -2.02686545       1.74844138       3.10070552
C       -2.11440703       1.40897044       1.66768635
C       -3.49238636       1.89510516       1.18167476
C       -3.54330573       3.38687553       0.81741444
C       -4.99056524       3.78468654       0.46486924
H       -5.08871219       4.87956410       0.30059637
C       -5.49580689       3.04280514      -0.78770135
O       -4.87510216       3.15321755      -1.82271620
C       -6.74305492       2.23763502      -0.67365872
H       -6.85323529       4.53105661       2.68168280
H       -1.25446948       1.85351973       1.11419952
H       -1.98972039       0.32162868       1.50918399
H       -3.82289835       1.27455341       0.34312410
H       -4.26485218       1.66895505       1.90646904
H       -3.21082201       3.98997699       1.68102233
H       -2.88128996       3.63795593      -0.02730947
H       -7.62547556       2.85244781      -0.46144705
H       -6.95605248       1.67915262      -1.58899919
H       -6.68140945       1.52544852       0.15460265
O       -5.75939254       3.42759529       1.64287577
O       -6.77013711       4.44302062       1.70412336
O       -0.09879745       2.84893978       2.57135002
O       -0.87305684       2.66300501       3.46940294
24
Properties=species:S:1:pos:R:3 energy=-2749.418302696366 pbc="F F F"
O       -2.73498145       1.49734048       4.03484214
C       -2.04974413       1.72227844       3.09484656
C       -2.10977809       1.40741849       1.65546712
C       -3.48464437       1.90487748       1.16858921
C       -3.53269859       3.39613540       0.80145425
C       -4.98510408       3.78952739       0.46079099
H       -5.08693856       4.88322639       0.29387394
C       -5.49843542       3.04136004      -0.78486425
O       -4.89062962       3.15811071      -1.82693365
C       -6.73533055       2.22227995      -0.65944777
H       -6.83808587       4.52659963       2.70178781
H       -1.24178457       1.86399345       1.12609154
H       -1.98034686       0.32435185       1.47536927
H       -3.82474923       1.28217301       0.33639054
H       -4.25484652       1.68945560       1.89185217
H       -3.19660082       3.99841251       1.66388886
H       -2.87786863       3.64884983      -0.04668002
H       -7.62886450       2.82856536      -0.47276593
H       -6.93425870       1.63720837      -1.56145070
H       -6.67069312       1.53283004       0.18712929
O       -5.74144357       3.43675909       1.64810509
O       -6.73573550       4.46813776       1.72401422
O       -0.14911023       2.87756335       2.60316568
O       -0.93387703       2.67118637       3.48679063
24
Properties=species:S:1:pos:R:3 energy=-2749.3842435444817 pbc="F F F"
O       -2.76499727       1.44130699       4.01525976
C       -2.07278812       1.69637606       3.08843891
C       -2.10527547       1.40611478       1.64349615
C       -3.47677734       1.91467385       1.15535556
C       -3.52228505       3.40533401       0.78551266
C       -4.97967904       3.79413040       0.45680613
H       -5.08520101       4.88667513       0.28726410
C       -5.50104894       3.03973119      -0.78196876
O       -4.90636208       3.16269845      -1.83093956
C       -6.72739301       2.20692645      -0.64504382
H       -6.82265085       4.52280681       2.72129470
H       -1.22978044       1.87447611       1.13853265
H       -1.97078063       0.32755142       1.44226107
H       -3.82618419       1.28981050       0.32915862
H       -4.24398804       1.71159849       1.87849724
H       -3.18252144       4.00682288       1.64680684
H       -2.87473292       3.65989876      -0.06605323
H       -7.63169761       2.80401553      -0.48370233
H       -6.91201276       1.59588194      -1.53318236
H       -6.66021725       1.54043314       0.21922034
O       -5.72347594       3.44565538       1.65328730
O       -6.70072219       4.49269992       1.74420799
O       -0.20068859       2.90511333       2.63458695
O       -0.99528980       2.67790946       3.50321009
24
Properties=species:S:1:pos:R:3 energy=-2749.349412061433 pbc="F F F"
O       -2.79477564       1.38600879       3.99442926
C       -2.09599016       1.67075160       3.08148707
C       -2.10091086       1.40506532       1.63177449
C       -3.46877582       1.92448725       1.14195555
C       -3.51207022       3.41446552       0.76959902
C       -4.97429426       3.79850218       0.45291057
H       -5.08350674       4.88991520       0.28076382
C       -5.50364780       3.03792375      -0.77901176
O       -4.92228906       3.16697984      -1.83472943
C       -6.71924749       2.19158773      -0.63045173
H       -6.80693147       4.51967164       2.74019277
H       -1.21847189       1.88497219       1.15149957
H       -1.96103095       0.33122370       1.40988430
H       -3.82718084       1.29746577       0.32142204
H       -4.23232731       1.73531624       1.86645237
H       -3.16859387       4.01520445       1.62977966
H       -2.87188011       3.67109013      -0.08541684
H       -7.63396790       2.77881748      -0.49424548
H       -6.88931845       1.55520857      -1.50421165
H       -6.64999265       1.54824456       0.25086934
O       -5.70550912       3.45428301       1.65841029
O       -6.66513133       4.51669312       1.76466543
O       -0.25346973       2.93158330       2.66560094
O       -1.05723633       2.68317967       3.51867739
24
Properties=species:S:1:pos:R:3 energy=-2749.314075729788 pbc="F F F"
O       -2.82430981       1.33147107       3.97237125
C       -2.11934299       1.64542242       3.07399556
C       -2.09669593       1.40427613       1.62030315
C       -3.46063036       1.93431069       1.12837096
C       -3.50205922       3.42352407       0.75372266
C       -4.96895393       3.80264935       0.44910023
H       -5.08186297       4.89295148       0.27437009
C       -5.50623231       3.03594288      -0.77599009
O       -4.93840005       3.17095394      -1.83829878
C       -6.71089918       2.17627701      -0.61567635
H       -6.79092895       4.51718759       2.75847132
H       -1.20787372       1.89548615       1.16496903
H       -1.95110702       0.33536497       1.37826388
H       -3.82771677       1.30513871       0.31317451
H       -4.21991490       1.76054137       1.85576566
H       -3.15482809       4.02355355       1.61281069
H       -2.86930744       3.68241132      -0.10475859
H       -7.63566835       2.75299036      -0.50438459
H       -6.86617954       1.51522348      -1.47455603
H       -6.64003014       1.55625105       0.28206986
O       -5.68756259       3.46264082       1.66346200
O       -6.62899706       4.54010339       1.78534726
O       -0.30739084       2.95696683       2.69619474
O       -1.11965785       2.68700236       3.53320857
24
Properties=species:S:1:pos:R:3 energy=-2749.2784523481364 pbc="F F F"
O       -2.85359300       1.27771902       3.94910632
C       -2.14283939       1.62040589       3.06596892
C       -2.09264237       1.40375321       1.60908318
C       -3.45233151       1.94413714       1.11458352
C       -3.49225717       3.43250383       0.73789293
C       -4.96366219       3.80657853       0.44537101
H       -5.08027690       4.89578884       0.26807988
C       -5.50880281       3.03379374      -0.77290064
O       -4.95468457       3.17461980      -1.84164311
C       -6.70235324       2.16100750      -0.60072255
H       -6.77464454       4.51534814       2.77611966
H       -1.19800071       1.90602248       1.17891777
H       -1.94101807       0.33997154       1.34742472
H       -3.82776958       1.31282921       0.30440972
H       -4.20680137       1.78720640       1.84648525
H       -3.14123408       4.03186655       1.59590331
H       -2.86701217       3.69384974      -0.12406619
H       -7.63679196       2.72655334      -0.51410889
H       -6.84259981       1.47596191      -1.44423296
H       -6.63034053       1.56443934       0.31281544
O       -5.66965582       3.47072767       1.66843034
O       -6.59235353       4.56291675       1.80621422
O       -0.36238912       2.98125752       2.72635547
O       -1.18249555       2.68938291       3.54681969
24
Properties=species:S:1:pos:R:3 energy=-2749.2426970712095 pbc="F F F"
O       -2.88261847       1.22477784       3.92465507
C       -2.16647208       1.59571934       3.05741164
C       -2.08876187       1.40350257       1.59811560
C       -3.44386982       1.95395961       1.10057501
C       -3.48266920       3.44139896       0.72211917
C       -4.95842321       3.81029634       0.44171883
H       -5.07875574       4.89843216       0.26189015
C       -5.51135962       3.03148151      -0.76974024
O       -4.97113214       3.17797648      -1.84475793
C       -6.69361487       2.14579239      -0.58559519
H       -6.75807945       4.51414676       2.79312707
H       -1.18886766       1.91658565       1.19332253
H       -1.93077334       0.34503969       1.31739173
H       -3.82731688       1.32053717       0.29512138
H       -4.19303731       1.81524385       1.83865923
H       -3.12782186       4.04013977       1.57906092
H       -2.86499154       3.70539279      -0.14332739
H       -7.63733171       2.69952558      -0.52340760
H       -6.81858305       1.43745908      -1.41325992
H       -6.62093464       1.57279617       0.34309965
O       -5.65180828       3.47854240       1.67330322
O       -6.55523487       4.58511923       1.82722705
O       -0.41840176       3.00444895       2.75607021
O       -1.24569064       2.69032669       3.55952680
24
Properties=species:S:1:pos:R:3 energy=-2749.2068870422145 pbc="F F F"
O       -2.91137944       1.17267271       3.89903811
C       -2.19023383       1.57138015       3.04832826
C       -2.08506612       1.40353022       1.58740144
C       -3.43523583       1.96377108       1.08632718
C       -3.47330042       3.45020360       0.70641072
C       -4.95324115       3.81380939       0.43813961
H       -5.07730671       4.90088633       0.25579789
C       -5.51390306       3.02901134      -0.76650578
O       -4.98773226       3.18102304      -1.84763876
C       -6.68468924       2.13064491      -0.57029913
H       -6.74123493       4.51357695       2.80948288
H       -1.18048937       1.92718014       1.20816004
H       -1.92038203       0.35056573       1.28818983
H       -3.82633627       1.32826248       0.28530319
H       -4.17867327       1.84458624       1.83233573
H       -3.11460139       4.04836958       1.56228689
H       -2.86324281       3.71702787      -0.16252991
H       -7.63728059       2.67192623      -0.53226994
H       -6.79413303       1.39975023      -1.38165437
H       -6.61182328       1.58130829       0.37291603
O       -5.63403945       3.48608386       1.67806856
O       -6.51767523       4.60669685       1.84834649
O       -0.47536596       3.02653469       2.78532607
O       -1.30918432       2.68983908       3.57134597
24
Properties=species:S:1:pos:R:3 energy=-2749.170989735786 pbc="F F F"
O       -2.93986917       1.12142883       3.87227602
C       -2.21411739       1.54740566       3.03872330
C       -2.08156678       1.40384218       1.57694173
C       -3.42642009       1.97356455       1.07182179
C       -3.46415595       3.45891192       0.69077692
C       -4.94812017       3.81712430       0.43462926
H       -5.07593702       4.90315621       0.24980008
C       -5.51643347       3.02638840      -0.76319411
O       -5.00447445       3.18375854      -1.85028110
C       -6.67558153       2.11557827      -0.55483923
H       -6.72411221       4.51363217       2.82517637
H       -1.17288063       1.93781043       1.22340703
H       -1.90985337       0.35654595       1.25984392
H       -3.82480535       1.33600502       0.27494885
H       -4.16375983       1.87516610       1.82756285
H       -3.10158267       4.05655231       1.54558460
H       -2.86176323       3.72874238      -0.18166149
H       -7.63663160       2.64377446      -0.54068512
H       -6.76925353       1.36287058      -1.34943376
H       -6.60301727       1.58996243       0.40225814
O       -5.61636881       3.49335090       1.68271428
O       -6.47970875       4.62763563       1.86953327
O       -0.53321891       3.04750834       2.81411016
O       -1.37291781       2.68792544       3.58229325
24
Properties=species:S:1:pos:R:3 energy=-2749.134818719375 pbc="F F F"
O       -2.96808089       1.07107139       3.84438942
C       -2.23811550       1.52381323       3.02860127
C       -2.07827556       1.40444446       1.56673750
C       -3.41741317       1.98333299       1.05704059
C       -3.45524093       3.46751807       0.67522712
C       -4.94306443       3.82024769       0.43118369
H       -5.07465387       4.90524669       0.24389368
C       -5.51895116       3.02361784      -0.75980209
O       -5.02134821       3.18618204      -1.85268046
C       -6.66629691       2.10060566      -0.53922035
H       -6.70671252       4.51430590       2.84019684
H       -1.16605624       1.94848098       1.23904023
H       -1.89919660       0.36297665       1.23237892
H       -3.82270172       1.34376470       0.26405206
H       -4.14834755       1.90691593       1.82438871
H       -3.08877570       4.06468431       1.52895745
H       -2.86055006       3.74052372      -0.20070986
H       -7.63537772       2.61508942      -0.54864238
H       -6.74394835       1.32685538      -1.31661558
H       -6.59452743       1.59874533       0.43111953
O       -5.59881582       3.50034237       1.68722829
O       -6.44136958       4.64792161       1.89074815
O       -0.59189780       3.06736348       2.84240958
O       -1.43683230       2.68459115       3.59238470
24
Properties=species:S:1:pos:R:3 energy=-2749.0979809396176 pbc="F F F"
O       -2.99600783       1.02162557       3.81539890
C       -2.26222092       1.50062022       3.01796668
C       -2.07520414       1.40534305       1.55678978
C       -3.40820559       1.99306942       1.04196534
C       -3.44656046       3.47601620       0.65977064
C       -4.93807810       3.82318617       0.42779881
H       -5.07346447       4.90716264       0.23807567
C       -5.52145647       3.02070484      -0.75632659
O       -5.03834306       3.18829259      -1.85483236
C       -6.65684058       2.08574031      -0.52344735
H       -6.68903709       4.51559163       2.85453361
H       -1.16003099       1.95919628       1.25503638
H       -1.88842092       0.36985412       1.20581974
H       -3.82000297       1.35154141       0.25260653
H       -4.13248701       1.93976827       1.82286143
H       -3.07619045       4.07276193       1.51240880
H       -2.85960054       3.75235928      -0.21966274
H       -7.63351194       2.58589026      -0.55613093
H       -6.71822125       1.29173984      -1.28321728
H       -6.58636456       1.60764374       0.45949376
O       -5.58139996       3.50705712       1.69159852
O       -6.40269185       4.66754081       1.91195184
O       -0.65133983       3.08609370       2.87021142
O       -1.50086901       2.67984158       3.60163636
24
Properties=species:S:1:pos:R:3 energy=-2749.0598177442216 pbc="F F F"
O       -3.02364324       0.97311657       3.78532507
C       -2.28642640       1.47784399       3.00682407
C       -2.07236419       1.40654399       1.54709960
C       -3.39878792       2.00276681       1.02657781
C       -3.43811967       3.48440048       0.64441685
C       -4.93316533       3.82594638       0.42447055
H       -5.07237604       4.90890894       0.23234303
C       -5.52394971       3.01765456      -0.75276446
O       -5.05544850       3.19008926      -1.85673230
C       -6.64721771       2.07099542      -0.50752509
H       -6.67108715       4.51748282       2.86817597
H       -1.15481968       1.96996081       1.27137221
H       -1.87753558       0.37717466       1.18019130
H       -3.81668672       1.35933503       0.24060595
H       -4.11622878       1.97365563       1.82302912
H       -3.06383692       4.08078152       1.49594205
H       -2.85891193       3.76423647      -0.23850786
H       -7.63102726       2.55619616      -0.56313999
H       -6.69207601       1.25755919      -1.24925633
H       -6.57853949       1.61664439       0.48737438
O       -5.56414070       3.51349400       1.69581288
O       -6.36370972       4.68647925       1.93310510
O       -0.71148220       3.10369256       2.89750279
O       -1.56496914       2.67368211       3.61006431
24
Properties=species:S:1:pos:R:3 energy=-2749.0193473760432 pbc="F F F"
O       -3.05098036       0.92556958       3.75418851
C       -2.31072468       1.45550189       2.99517794
C       -2.06976740       1.40805327       1.53766799
C       -3.38915070       2.01241815       1.01085973
C       -3.42992368       3.49266506       0.62917506
C       -4.92833029       3.82853491       0.42119480
H       -5.07139579       4.91049047       0.22669273
C       -5.52643122       3.01447215      -0.74911257
O       -5.07265406       3.19157111      -1.85837579
C       -6.63743348       2.05638420      -0.49145842
H       -6.65286394       4.51997296       2.88111322
H       -1.15043709       1.98077903       1.28802446
H       -1.86654978       0.38493456       1.15551850
H       -3.81273057       1.36714546       0.22804404
H       -4.09962342       2.00851054       1.82493989
H       -3.05172511       4.08873942       1.47956058
H       -2.85848148       3.77614268      -0.25723297
H       -7.62791666       2.52602626      -0.56965879
H       -6.66551642       1.22434868      -1.21475020
H       -6.57106303       1.62573403       0.51475495
O       -5.54705752       3.51965186       1.69985928
O       -6.32445731       4.70472296       1.95416866
O       -0.77226209       3.12015367       2.92427079
O       -1.62907390       2.66611810       3.61768459
24
Properties=species:S:1:pos:R:3 energy=-2748.9752160554453 pbc="F F F"
O       -3.07801243       0.87900979       3.72200984
C       -2.33510853       1.43361128       2.98303283
C       -2.06742547       1.40987690       1.52849599
C       -3.37928449       2.02201645       0.99479288
C       -3.42197761       3.50080409       0.61405464
C       -4.92357714       3.83095840       0.41796750
H       -5.07053092       4.91191210       0.22112175
C       -5.52890132       3.01116279      -0.74536778
O       -5.08994923       3.19273718      -1.85975834
C       -6.62749308       2.04191987      -0.47525222
H       -6.63436868       4.52305553       2.89333466
H       -1.14689804       1.99165542       1.30496986
H       -1.85547276       0.39313012       1.13182626
H       -3.80811210       1.37497260       0.21491448
H       -4.08272150       2.04426550       1.82864185
H       -3.03986499       4.09663197       1.46326777
H       -2.85830645       3.78806532      -0.27582579
H       -7.62417314       2.49539973      -0.57567654
H       -6.63854626       1.19214353      -1.17971635
H       -6.56394600       1.63489939       0.54162901
O       -5.53016990       3.52552954       1.70372565
O       -6.28496878       4.72225796       1.97510326
O       -0.83361671       3.13547060       2.95050252
O       -1.69312449       2.65715493       3.62451326
24
Properties=species:S:1:pos:R:3 energy=-2748.925666660411 pbc="F F F"
O       -3.10473268       0.83346239       3.68880964
C       -2.35957068       1.41218951       2.97039324
C       -2.06535007       1.41202090       1.51958462
C       -3.36917983       2.03155468       0.97835901
C       -3.41428659       3.50881173       0.59906492
C       -4.91891004       3.83322346       0.41478455
H       -5.06978864       4.91317872       0.21562706
C       -5.53136034       3.00773163      -0.74152696
O       -5.10732354       3.19358655      -1.86087546
C       -6.61740167       2.02761562      -0.45891135
H       -6.61560262       4.52672400       2.90482960
H       -1.14421730       2.00259446       1.32218513
H       -1.84431373       0.40175764       1.10913949
H       -3.80280893       1.38281633       0.20121099
H       -4.06557360       2.08085305       1.83418313
H       -3.02826656       4.10445553       1.44706701
H       -2.85838408       3.79999178      -0.29427404
H       -7.61978968       2.46433573      -0.58118246
H       -6.61116930       1.16097897      -1.14417224
H       -6.55719920       1.64412722       0.56799012
O       -5.51349730       3.53112590       1.70739990
O       -6.24527826       4.73907027       1.99586964