22
Properties=species:S:1:pos:R:3 energy=-1890.3621245912577 pbc="F F F"
C        4.48455900      -0.63865600       1.75674300
C        3.26891600      -0.58253200       0.82707500
C        2.82336400      -1.99955300       0.46747200
C        2.50871200      -2.86968300       1.68803700
C        3.36069900      -2.60053600       2.97682800
C        4.10613000      -1.27459400       3.09496000
H        5.29857300      -1.22284700       1.28092700
H        4.89285900       0.37568600       1.92279900
H        2.44105900      -0.02634900       1.30652000
H        3.51759300      -0.02311700      -0.09517700
H        1.95323100      -1.96652600      -0.21500700
H        3.62924000      -2.50736700      -0.11019900
C        1.02375100      -3.00081600       1.97868100
H        2.75505600      -2.77800200       3.89587200
H        5.02488800      -1.44673300       3.69642800
H        3.48703200      -0.56590300       3.68107700
H        0.47599700      -3.37194000       1.10137100
H        0.58576700      -2.03693700       2.26182900
H        0.83008700      -3.71980600       2.78709600
O        4.30597300      -3.72051900       3.01913300
O        4.29188100      -4.24945400       1.69846100
O        2.93572100      -4.25805400       1.36746400
22
Properties=species:S:1:pos:R:3 energy=-1890.2444128477323 pbc="F F F"
C        4.48191775      -0.64295832       1.75525574
C        3.26696565      -0.58379561       0.82648165
C        2.82214210      -1.99908589       0.46271850
C        2.49729224      -2.87834221       1.66582875
C        3.39949605      -2.61168703       3.00769128
C        4.09887959      -1.26929075       3.09743092
H        5.29482402      -1.23156254       1.28360037
H        4.89656762       0.36998933       1.91850584
H        2.44028441      -0.02751357       1.30723602
H        3.51622703      -0.02265256      -0.09289062
H        1.95253721      -1.96131072      -0.22143580
H        3.62932360      -2.50577078      -0.11493829
C        1.01963257      -3.00200586       1.97269681
H        2.75265147      -2.81627493       3.87215616
H        5.01922830      -1.40975460       3.70954311
H        3.45952283      -0.56825513       3.66906782
H        0.46442508      -3.36804819       1.09767438
H        0.58700894      -2.03656395       2.26079631
H        0.82710282      -3.72077134       2.78181134
O        4.35232503      -3.69612876       3.06433786
O        4.28265508      -4.25113020       1.67786844
O        2.94007860      -4.25132438       1.38695341
22
Properties=species:S:1:pos:R:3 energy=-1889.9442859632081 pbc="F F F"
C        4.47934809      -0.64748717       1.75400991
C        3.26505926      -0.58512984       0.82598508
C        2.82070589      -1.99861588       0.45775677
C        2.48591851      -2.88666987       1.64407691
C        3.43794853      -2.62212085       3.03823837
C        4.09192477      -1.26437098       3.10012439
H        5.29080701      -1.24068575       1.28623277
H        4.90048259       0.36392331       1.91416567
H        2.43951836      -0.02883398       1.30811490
H        3.51490288      -0.02207957      -0.09056411
H        1.95173771      -1.95592941      -0.22801934
H        3.62919949      -2.50418079      -0.11983968
C        1.01528267      -3.00308885       1.96656196
H        2.75346235      -2.85437170       3.84868374
H        5.01236144      -1.37274768       3.72233803
H        3.43228808      -0.57200335       3.65695732
H        0.45275332      -3.36393529       1.09380443
H        0.58808294      -2.03619560       2.25969969
H        0.82387669      -3.72179964       2.77622257
O        4.39810928      -3.67061848       3.11078606
O        4.27352903      -4.25266048       1.65755363
O        2.94378910      -4.24463613       1.40550092
22
Properties=species:S:1:pos:R:3 energy=-1889.543275068634 pbc="F F F"
C        4.47684742      -0.65224110       1.75299772
C        3.26319580      -0.58653545       0.82558581
C        2.81906258      -1.99814184       0.45259694
C        2.47459542      -2.89467042       1.62277866
C        3.47605911      -2.63183523       3.06846707
C        4.08525749      -1.25982940       3.10302848
H        5.28653019      -1.25020589       1.28882689
H        4.90459145       0.35749200       1.90978991
H        2.43876117      -0.03030721       1.30915363
H        3.51362307      -0.02140555      -0.08819121
H        1.95083770      -1.95038699      -0.23474962
H        3.62887223      -2.50259656      -0.12489698
C        1.01070970      -3.00406678       1.96028258
H        2.75742693      -2.89221130       3.82547935
H        5.00431082      -1.33576094       3.73480470
H        3.40535651      -0.57712526       3.64476046
H        0.44098933      -3.35960841       1.08976757
H        0.58899205      -2.03583251       2.25854106
H        0.82041580      -3.72288849       2.77033830
O        4.44328191      -3.64403807       3.15839230
O        4.26449941      -4.25404929       1.63751747
O        2.94687192      -4.23799329       1.42311890
22
Properties=species:S:1:pos:R:3 energy=-1889.1230294195936 pbc="F F F"
C        4.47441314      -0.65721866       1.75221138
C        3.26137420      -0.58801321       0.82528435
C        2.81721939      -1.99766265       0.44724912
C        2.46332760      -2.90234830       1.60193118
C        3.51383047      -2.64082795       3.09837519
C        4.07886972      -1.25566071       3.10613127
H        5.28200175      -1.26011219       1.29138539
H        4.90888176       0.35069950       1.90538996
H        2.43801311      -0.03193028       1.31034923
H        3.51239012      -0.02063801      -0.08576571
H        1.94984239      -1.94468834      -0.24161859
H        3.62834635      -2.50101762      -0.13010401
C        1.00592207      -3.00494142       1.95386481
H        2.76448347      -2.92971275       3.80256757
H        4.99509983      -1.29884310       3.74693506
H        3.37875686      -0.58359845       3.63249220
H        0.42914071      -3.35507468       1.08557024
H        0.58973932      -2.03547526       2.25732235
H        0.81672733      -3.72403548       2.76416715
O        4.48779909      -3.61643747       3.20707129
O        4.25556281      -4.25530111       1.61776086
O        2.94934650      -4.23139989       1.43981970
22
Properties=species:S:1:pos:R:3 energy=-1888.7599207903315 pbc="F F F"
C        4.47204267      -0.66241838       1.75164309
C        3.25959342      -0.58956387       0.82508123
C        2.81518353      -1.99717716       0.44172343
C        2.45211967      -2.90970792       1.58153167
C        3.55126530      -2.64909677       3.12796054
C        4.07275340      -1.25185961       3.10942082
H        5.27722993      -1.27039390       1.29391093
H        4.91334109       0.34354986       1.90097722
H        2.43727449      -0.03370018       1.31169870
H        3.51120654      -0.01978448      -0.08328136
H        1.94875697      -1.93883839      -0.24861823
H        3.62762641      -2.49944349      -0.13545457
C        1.00092818      -3.00571454       1.94731478
H        2.77457026      -2.96679504       3.77997301
H        4.98475185      -1.26204286       3.75872104
H        3.35251791      -0.59140054       3.62016749
H        0.41721509      -3.35034121       1.08121886
H        0.59032779      -2.03512442       2.25604548
H        0.81281847      -3.72523817       2.75771775
O        4.53161698      -3.58786658       3.25673773
O        4.24671581      -4.25642039       1.59828471
O        2.95123225      -4.22485997       1.45561569
22
Properties=species:S:1:pos:R:3 energy=-1888.5139361300435 pbc="F F F"
C        4.46973340      -0.66783881       1.75128506
C        3.25785241      -0.59118820       0.82497696
C        2.81296224      -1.99668426       0.43602997
C        2.44097625      -2.91675372       1.56157732
C        3.58836626      -2.65663945       3.15722092
C        4.06690051      -1.24842081       3.11288519
H        5.27222292      -1.28104028       1.29640620
H        4.91795699       0.33604716       1.89656310
H        2.43654561      -0.03561391       1.31319905
H        3.51007484      -0.01885247      -0.08073192
H        1.94758665      -1.93284202      -0.25574052
H        3.62671695      -2.49787371      -0.14094247
C        0.99573642      -3.00638795       1.94063864
H        2.78762556      -3.00337717       3.75772025
H        4.97329027      -1.22540893       3.77015460
H        3.32666841      -0.60050911       3.60780128
H        0.40522008      -3.34541512       1.07671986
H        0.59076051      -2.03478056       2.25471237
H        0.80869640      -3.72649417       2.75099871
O        4.57469175      -3.55837535       3.30730632
O        4.23795499      -4.25741161       1.57908992
O        2.95254859      -4.21837756       1.47051920
22
Properties=species:S:1:pos:R:3 energy=-1888.4119365740764 pbc="F F F"
C        4.46748274      -0.67347850       1.75112949
C        3.25615012      -0.59288697       0.82497208
C        2.81056273      -1.99618280       0.43017887
C        2.42990197      -2.92349014       1.54206530
C        3.62513604      -2.66345378       3.18615413
C        4.06130301      -1.24533902       3.11651246
H        5.26698894      -1.29204056       1.29887386
H        4.92271701       0.32819547       1.89215900
H        2.43582675      -0.03766847       1.31484728
H        3.50899753      -0.01784950      -0.07811116
H        1.94633663      -1.92670416      -0.26297742
H        3.62562251      -2.49630781      -0.14656154
C        0.99035520      -3.00696341       1.93384251
H        2.80358765      -3.03937815       3.73583389
H        4.96073848      -1.18899002       3.78122766
H        3.30123711      -0.61090176       3.59540855
H        0.39316329      -3.34030353       1.07207966
H        0.59104053      -2.03444425       2.25332495
H        0.80436833      -3.72780105       2.74401865
O        4.61697956      -3.52801368       3.35869176
O        4.22927692      -4.25827923       1.56017740
O        2.95331495      -4.21195669       1.48454262
22
Properties=species:S:1:pos:R:3 energy=-1888.4395571047244 pbc="F F F"
C        4.46528810      -0.67933600       1.75116859
C        3.25448549      -0.59466094       0.82506709
C        2.80799221      -1.99567165       0.42418024
C        2.41890144      -2.92992159       1.52299282
C        3.66157731      -2.66953750       3.21475798
C        4.05595284      -1.24260893       3.12029070
H        5.26153621      -1.30338400       1.30131659
H        4.92760871       0.31999887       1.88777634
H        2.43511822      -0.03986087       1.31664040
H        3.50797712      -0.01678310      -0.07541284
H        1.94501213      -1.92042970      -0.27032090
H        3.62434764      -2.49474531      -0.15230556
C        0.98479293      -3.00744272       1.92693253
H        2.82239481      -3.07471697       3.71433852
H        4.94711988      -1.15283484       3.79193218
H        3.27625278      -0.62255611       3.58300423
H        0.38105234      -3.33501355       1.06730468
H        0.59117091      -2.03411607       2.25188514
H        0.79984142      -3.72915640       2.73678620
O        4.65843658      -3.49683149       3.41080875
O        4.22067820      -4.25902771       1.54154805
O        2.95355075      -4.20560142       1.49769828
22
Properties=species:S:1:pos:R:3 energy=-1888.5560951123684 pbc="F F F"
C        4.46314687      -0.68540984       1.75139457
C        3.25285748      -0.59651087       0.82526252
C        2.80525791      -1.99514970       0.41804419
C        2.40797929      -2.93605252       1.50435705
C        3.69769275      -2.67488840       3.24303027
C        4.05084199      -1.24022525       3.12420796
H        5.25587293      -1.31505984       1.30373704
H        4.93261965       0.31146142       1.88342651
H        2.43442030      -0.04218810       1.31857542
H        3.50701614      -0.01566079      -0.07263072
H        1.94361834      -1.91402354      -0.27776295
H        3.62289688      -2.49318575      -0.15816837
C        0.97905800      -3.00782765       1.91991485
H        2.84398531      -3.10931264       3.69325875
H        4.93245784      -1.11699209       3.80226008
H        3.25174417      -0.63544974       3.57060331
H        0.36889483      -3.32955230       1.06240137
H        0.59115467      -2.03379659       2.25039487
H        0.79512288      -3.73055779       2.72930996
O        4.69901897      -3.46487873       3.46357201
O        4.21215538      -4.25966153       1.52320277
O        2.95327541      -4.19931576       1.50999856
22
Properties=species:S:1:pos:R:3 energy=-1888.7190324936594 pbc="F F F"
C        4.46105648      -0.69169858       1.75179963
C        3.25126503      -0.59843752       0.82555888
C        2.80236705      -1.99461579       0.41178083
C        2.39714014      -2.94188736       1.48615519
C        3.73348503      -2.67950424       3.27096881
C        4.04596239      -1.23818269       3.12825232
H        5.25000732      -1.32705733       1.30613789
H        4.93773738       0.30258721       1.87912092
H        2.43373330      -0.04464716       1.32064933
H        3.50611708      -0.01449007      -0.06975857
H        1.94216046      -1.90749060      -0.28529553
H        3.62127477      -2.49162864      -0.16414376
C        0.97315882      -3.00811999       1.91279560
H        2.86829743      -3.14308417       3.67261916
H        4.91677577      -1.08151050       3.81220331
H        3.22774004      -0.64956025       3.55822072
H        0.35669839      -3.32392691       1.05737614
H        0.59099488      -2.03348638       2.24885606
H        0.79021989      -3.73200282       2.72159857
O        4.73868290      -3.43220529       3.51689622
O        4.20370507      -4.26018514       1.50514248
O        2.95250836      -4.19310375       1.52145580
22
Properties=species:S:1:pos:R:3 energy=-1888.8975415909806 pbc="F F F"
C        4.45901431      -0.69820077       1.75237598
C        3.24970710      -0.60044167       0.82595671
C        2.79932684      -1.99406882       0.40540029
C        2.38638861      -2.94743052       1.46838443
C        3.76895684      -2.68338279       3.29857141
C        4.04130603      -1.23647595       3.13241184
H        5.24394759      -1.33936572       1.30852182
H        4.94294947       0.29338030       1.87487099
H        2.43305751      -0.04723506       1.32285915
H        3.50528247      -0.01327848      -0.06679014
H        1.94064371      -1.90083578      -0.29291062
H        3.61948587      -2.49007353      -0.17022555
C        0.96710378      -3.00832152       1.90558091
H        2.89526944      -3.17595055       3.65244434
H        4.90009704      -1.04643876       3.82175381
H        3.20426915      -0.66486525       3.54587143
H        0.34447062      -3.31814448       1.05223541
H        0.59069458      -2.03318601       2.24727064
H        0.78513964      -3.73348906       2.71366064
O        4.77738454      -3.39886112       3.57069609
O        4.19532383      -4.26060302       1.48736807
O        2.95126902      -4.18696944       1.53208236
22
Properties=species:S:1:pos:R:3 energy=-1889.0737787315197 pbc="F F F"
C        4.45701778      -0.70491494       1.75311582
C        3.24818263      -0.60252408       0.82645652
C        2.79614451      -1.99350763       0.39891268
C        2.37572933      -2.95268645       1.45104194
C        3.80411085      -2.68652182       3.32583586
C        4.03686485      -1.23509973       3.13667460
H        5.23770196      -1.35197425       1.31089149
H        4.94824346       0.28384477       1.87068810
H        2.43239323      -0.04994879       1.32520189
H        3.50451482      -0.01203352      -0.06371921
H        1.93907328      -1.89406398      -0.30060018
H        3.61753471      -2.48851994      -0.17640756
C        0.96090129      -3.00843403       1.89827693
H        2.92483962      -3.20783078       3.63275890
H        4.88244506      -1.01182559       3.83090352
H        3.18136026      -0.68134233       3.53357039
H        0.33221914      -3.31221215       1.04698562
H        0.59025682      -2.03289606       2.24564054
H        0.77988931      -3.73501410       2.70550479
O        4.81508005      -3.36489612       3.62488632
O        4.18700824      -4.26091962       1.46988044
O        2.94957681      -4.18091686       1.54189061
22
Properties=species:S:1:pos:R:3 energy=-1889.2392447954962 pbc="F F F"
C        4.45506429      -0.71183964       1.75401135
C        3.24669058      -0.60468550       0.82705883
C        2.79282727      -1.99293111       0.39232811
C        2.36516691      -2.95765958       1.43412493
C        3.83894975      -2.68891909       3.35275997
C        4.03263081      -1.23404874       3.14102866
H        5.23127863      -1.36487217       1.31324956
H        4.95360691       0.27398469       1.86658367
H        2.43174075      -0.05278536       1.32767454
H        3.50381664      -0.01076273      -0.06053953
H        1.93745438      -1.88718011      -0.30835619
H        3.61542585      -2.48696740      -0.18268358
C        0.95455975      -3.00845930       1.89088978
H        2.95694624      -3.23864387       3.61358743
H        4.86384320      -0.97771968       3.83964439
H        3.15904212      -0.69896910       3.52133257
H        0.31995156      -3.30613701       1.04163319
H        0.58968464      -2.03261710       2.24396766
H        0.77447610      -3.73657553       2.69713964
O        4.85172560      -3.33036022       3.67938162
O        4.17875489      -4.26113942       1.45268051
O        2.94745115      -4.17495003       1.55089289
22
Properties=species:S:1:pos:R:3 energy=-1889.390798943616 pbc="F F F"
C        4.45315124      -0.71897342       1.75505479
C        3.24522989      -0.60692670       0.82776415
C        2.78938235      -1.99233811       0.38565669
C        2.35470597      -2.96235433       1.41763057
C        3.87347619      -2.69057238       3.37934155
C        4.02859588      -1.23331768       3.14546209
H        5.22468582      -1.37804873       1.31559873
H        4.95902738       0.26380413       1.86256911
H        2.43110036      -0.05574177       1.33027412
H        3.50319044      -0.00947362      -0.05724486
H        1.93579222      -1.88018907      -0.31617062
H        3.61316382      -2.48541543      -0.18904744
C        0.94808757      -3.00839910       1.88342561
H        2.99152757      -3.26830882       3.59495452
H        4.84431485      -0.94416977       3.84796834
H        3.13734350      -0.71772316       3.50917291
H        0.30767550      -3.29992620       1.03618455
H        0.58898110      -2.03234969       2.24225395
H        0.76890719      -3.73817092       2.68857381
O        4.88727735      -3.29530335       3.73409668
O        4.17056035      -4.26126687       1.43576918
O        2.94491147      -4.16907300       1.55910158
22
Properties=species:S:1:pos:R:3 energy=-1889.5278809339832 pbc="F F F"
C        4.45127604      -0.72631482       1.75623834
C        3.24379952      -0.60924846       0.82857302
C        2.78581696      -1.99172752       0.37890855
C        2.34435114      -2.96677514       1.40155606
C        3.90769287      -2.69147945       3.40557840
C        4.02475202      -1.23290126       3.14996295
H        5.21793174      -1.39149317       1.31794164
H        4.96449243       0.25330716       1.85865582
H        2.43047237      -0.05881501       1.33299762
H        3.50263873      -0.00817370      -0.05382897
H        1.93409199      -1.87309576      -0.32403545
H        3.61075317      -2.48386358      -0.19549294
C        0.94149314      -3.00825524       1.87589054
H        3.02852190      -3.29674463       3.57688476
H        4.82388341      -0.91122454       3.85586732
H        3.11629314      -0.73758209       3.49710639
H        0.29539856      -3.29358683       1.03064612
H        0.58814924      -2.03209441       2.24050133
H        0.76318976      -3.73979786       2.67981592
O        4.92169146      -3.25977542       3.78894622
O        4.16242120      -4.26130646       1.41914735
O        2.94197720      -4.16328981       1.56652901
22
Properties=species:S:1:pos:R:3 energy=-1889.651014831575 pbc="F F F"
C        4.44943610      -0.73386240       1.75755421
C        3.24239840      -0.61165152       0.82948595
C        2.78213832      -1.99109819       0.37209379
C        2.33410705      -2.97092643       1.38589858
C        3.94160247      -2.69163807       3.43146832
C        4.02109118      -1.23279417       3.15451932
H        5.21102460      -1.40519475       1.32028097
H        4.96998961       0.24249787       1.85485520
H        2.42985707      -0.06200209       1.33584207
H        3.50216404      -0.00687050      -0.05028563
H        1.93235890      -1.86590510      -0.33194265
H        3.60819845      -2.48231136      -0.20201389
C        0.93478486      -3.00802948       1.86829073
H        3.06786749      -3.32387030       3.55940276
H        4.80257227      -0.87893272       3.86333328
H        3.09591982      -0.75852351       3.48514795
H        0.28312837      -3.28712602       1.02502433
H        0.58719211      -2.03185184       2.23871171
H        0.75733101      -3.74145393       2.67087458
O        4.95492411      -3.22382636       3.84384492
O        4.15433403      -4.26126263       1.40281593
O        2.93866774      -4.15760448       1.57318756
22
Properties=species:S:1:pos:R:3 energy=-1889.7611639901002 pbc="F F F"
C        4.44762881      -0.74161468       1.75899459
C        3.24102550      -0.61413666       0.83050346
C        2.77835365      -1.99044901       0.36522254
C        2.32397830      -2.97481264       1.37065533
C        3.97520765      -2.69104600       3.45700913
C        4.01760533      -1.23299113       3.15911926
H        5.20397261      -1.41914270       1.32261940
H        4.97550648       0.23138031       1.85117866
H        2.42925476      -0.06530001       1.33880445
H        3.50176887      -0.00557154      -0.04660859
H        1.93059816      -1.85862199      -0.33988418
H        3.60550419      -2.48075830      -0.20860411
C        0.92797115      -3.00772361       1.86063231
H        3.10950263      -3.34960483       3.54253310
H        4.78040480      -0.84734301       3.87035814
H        3.07625228      -0.78052502       3.47331255
H        0.27087253      -3.28055089       1.01932560
H        0.58611275      -2.03162255       2.23688703
H        0.75133813      -3.74313672       2.66175843
O        4.98693146      -3.18750610       3.89870750
O        4.14629540      -4.26113986       1.38677582
O        2.93500253      -4.15202106       1.57908958
22
Properties=species:S:1:pos:R:3 energy=-1889.8594989199175 pbc="F F F"
C        4.44585159      -0.74957023       1.76055171
C        3.23967976      -0.61670463       0.83162608
C        2.77447018      -1.98977883       0.35830490
C        2.31396953      -2.97843820       1.35582348
C        4.00851110      -2.68970103       3.48219862
C        4.01428643      -1.23348684       3.16375084
H        5.19678400      -1.43332628       1.32495959
H        4.98103060       0.21995857       1.84763761
H        2.42866572      -0.06870576       1.34188179
H        3.50145573      -0.00428434      -0.04279162
H        1.92881497      -1.85125133      -0.34785203
H        3.60267495      -2.47920394      -0.21525740
C        0.92106039      -3.00733942       1.85292140
H        3.15336558      -3.37386723       3.52630038
H        4.75740441      -0.81650411       3.87693385
H        3.05731929      -0.80356420       3.46161515
H        0.25863866      -3.27386855       1.01355637
H        0.58491422      -2.03140710       2.23502921
H        0.74521830      -3.74484381       2.65247608
O        5.01766967      -3.15086455       3.95344866
O        4.13830191      -4.26094261       1.37102792
O        2.93100099      -4.14654358       1.58424742
22
Properties=species:S:1:pos:R:3 energy=-1889.9473000636442 pbc="F F F"
C        4.44410184      -0.75772758       1.76221775
C        3.23836014      -0.61935621       0.83285431
C        2.77049512      -1.98908652       0.35135099
C        2.30408536      -2.98180754       1.34140023
C        4.04151549      -2.68760090       3.50703460
C        4.01112643      -1.23427600       3.16840212
H        5.18946696      -1.44773473       1.32730421
H        4.98654951       0.20823671       1.84424345
H        2.42809026      -0.07221635       1.34507107
H        3.50122714      -0.00301641      -0.03882847
H        1.92701453      -1.84379802      -0.35583816
H        3.59971527      -2.47764781      -0.22196758
C        0.91406100      -3.00687868       1.84516416
H        3.19939462      -3.39657650       3.51072919
H        4.73359449      -0.78646474       3.88305236
H        3.03914961      -0.82761867       3.45007071
H        0.24643438      -3.26708613       1.00772306
H        0.58359956      -2.03120607       2.23314017
H        0.73897871      -3.74657279       2.64303614
O        5.04709491      -3.11395163       4.00798309
O        4.13035013      -4.26067535       1.35557314
O        2.92668254      -4.14117607       1.58867345
22
Properties=species:S:1:pos:R:3 energy=-1890.0258757075915 pbc="F F F"
C        4.44237696      -0.76608529       1.76398494
C        3.23706557      -0.62209215       0.83418869
C        2.76643568      -1.98837096       0.34437092
C        2.29433040      -2.98492509       1.32738277
C        4.07422350      -2.68474340       3.53151487
C        4.00811730      -1.23535332       3.17306118
H        5.18202972      -1.46235730       1.32965594
H        4.99205079       0.19621882       1.84100759
H        2.42752867      -0.07582878       1.34836932
H        3.50108562      -0.00177528      -0.03471292
H        1.92520205      -1.83626698      -0.36383455
H        3.59662970      -2.47608942      -0.22872846
C        0.90698137      -3.00634319       1.83736671
H        3.24752803      -3.41765164       3.49584414
H        4.70899841      -0.75727361       3.88870560
H        3.02177198      -0.85266602       3.43869418
H        0.23426729      -3.26021073       1.00183209
H        0.58217182      -2.03102004       2.23122183
H        0.73262654      -3.74832123       2.63344724
O        5.07516335      -3.07681727       4.06222551
O        4.12243664      -4.26034254       1.34041239
O        2.92206661      -4.13592257       1.59238001
22
Properties=species:S:1:pos:R:3 energy=-1890.0964732142747 pbc="F F F"
C        4.44067437      -0.77464189       1.76584546
C        3.23579502      -0.62491323       0.83562973
C        2.76229910      -1.98763101       0.33737482
C        2.28470928      -2.98779527       1.31376828
C        4.10663781      -2.68112629       3.55563725
C        4.00525100      -1.23671349       3.17771609
H        5.17448048      -1.47718324       1.33201744
H        4.99752198       0.18390896       1.83794144
H        2.42698125      -0.07954005       1.35177354
H        3.50103366      -0.00056847      -0.03043873
H        1.92338273      -1.82866310      -0.37183317
H        3.59342277      -2.47452832      -0.23553385
C        0.89982991      -3.00573472       1.82953519
H        3.29770408      -3.43701165       3.48166980
H        4.68363957      -0.72897943       3.89388551
H        3.00521518      -0.87868386       3.42750053
H        0.22214500      -3.25324949       0.99588990
H        0.58063405      -2.03084957       2.22927613
H        0.72616900      -3.75008672       2.62371800
O        5.10183114      -3.03951139       4.11609060
O        4.11455802      -4.25994866       1.32554657
O        2.91717261      -4.13078712       1.59537948
22
Properties=species:S:1:pos:R:3 energy=-1890.1602005554969 pbc="F F F"
C        4.43899145      -0.78339593       1.76779154
C        3.23454742      -0.62782020       0.83717796
C        2.75809258      -1.98686555       0.33037279
C        2.27522663      -2.99042253       1.30055395
C        4.13876110      -2.67674734       3.57939952
C        4.00251949      -1.23835123       3.18235490
H        5.16682746      -1.49220180       1.33439138
H        5.00295064       0.17131120       1.83505639
H        2.42644829      -0.08334716       1.35528072
H        3.50107379       0.00059652      -0.02599965
H        1.92156177      -1.82099130      -0.37982599
H        3.59009904      -2.47296403      -0.24237755
C        0.89261501      -3.00505505       1.82167574
H        3.34986105      -3.45457553       3.46823079
H        4.65754136      -0.70163090       3.89858403
H        2.98950795      -0.90564977       3.41650471
H        0.21007515      -3.24620951       0.98990290
H        0.57898929      -2.03069523       2.22730499
H        0.71961325      -3.75186685       2.61385703
O        5.12705446      -3.00208392       4.16949308
O        4.10671085      -4.25949815       1.31097658
O        2.91201997      -4.12577375       1.59768420
22
Properties=species:S:1:pos:R:3 energy=-1890.217977142105 pbc="F F F"
C        4.43732562      -0.79234597       1.76981537
C        3.23332174      -0.63081382       0.83883389
C        2.75382335      -1.98607343       0.32337495
C        2.26588705      -2.99281128       1.28773697
C        4.17059603      -2.67160432       3.60279951
C        3.99991473      -1.24026124       3.18696569
H        5.15907886      -1.50740221       1.33678043
H        5.00832433       0.15842962       1.83236385
H        2.42593008      -0.08724711       1.35888788
H        3.50120852       0.00171214      -0.02138946
H        1.91974439      -1.81325647      -0.38780498
H        3.58666304      -2.47139608      -0.24925339
C        0.88534508      -3.00430598       1.81379450
H        3.40393720      -3.47026229       3.45555168
H        4.63072717      -0.67527674       3.90279310
H        2.97467905      -0.93354136       3.40572167
H        0.19806532      -3.23909791       0.98387753