22
Properties=species:S:1:pos:R:3 energy=-1888.4119365740764 pbc="F F F"
C        4.46748274      -0.67347850       1.75112949
C        3.25615012      -0.59288697       0.82497208
C        2.81056273      -1.99618280       0.43017887
C        2.42990197      -2.92349014       1.54206530
C        3.62513604      -2.66345378       3.18615413
C        4.06130301      -1.24533902       3.11651246
H        5.26698894      -1.29204056       1.29887386
H        4.92271701       0.32819547       1.89215900
H        2.43582675      -0.03766847       1.31484728
H        3.50899753      -0.01784950      -0.07811116
H        1.94633663      -1.92670416      -0.26297742
H        3.62562251      -2.49630781      -0.14656154
C        0.99035520      -3.00696341       1.93384251
H        2.80358765      -3.03937815       3.73583389
H        4.96073848      -1.18899002       3.78122766
H        3.30123711      -0.61090176       3.59540855
H        0.39316329      -3.34030353       1.07207966
H        0.59104053      -2.03444425       2.25332495
H        0.80436833      -3.72780105       2.74401865
O        4.61697956      -3.52801368       3.35869176
O        4.22927692      -4.25827923       1.56017740
O        2.95331495      -4.21195669       1.48454262
