22
Properties=species:S:1:pos:R:3:momenta:R:3:forces:R:3 pbc="F F F"
C        2.99555234      -1.08933615       2.72261885       0.55786036       0.16691933      -0.20417479      -0.00166244       0.00206501      -0.00686740
C        2.34574147      -0.58986794       1.42781209      -0.02815145      -2.86639536      -0.12443054       0.00138077      -0.00459651      -0.00882947
C        2.99987991      -1.21868046       0.19573908      -1.47770540      -2.40729172       0.47872313      -0.00190817      -0.02098287       0.00402597
C        2.80303712      -2.68018615       0.02450336      -1.63096915       0.23811815      -1.86567576       0.79228047       0.28259890      -1.21247886
C        3.67715670      -3.42721710       1.98974844       0.39099973       0.30008497       2.02528156       2.16505383      -0.18071429       1.14937066
C        2.79703455      -2.59387439       2.90412865      -1.58374208      -0.75028594       0.00872673       0.00607474       0.00495062      -0.00920666
H        4.08617824      -0.86704368       2.70961195       0.47431298      -0.70681691      -0.07602055      -0.00331330       0.00140950       0.00942182
H        2.57727285      -0.54364360       3.58930369       0.33227873       0.23582971      -0.11451827       0.00601138      -0.00488449      -0.00195479
H        1.25756774      -0.78835728       1.43768540      -0.23615470      -0.01899621      -0.33782530       0.00456699      -0.01621709      -0.00835547
H        2.44998578       0.51271707       1.36743724      -0.25348762       0.03557567      -0.16239855      -0.00543772       0.00202588      -0.00660959
H        2.64291084      -0.70530634      -0.72567860      -0.29350616      -0.19094749       0.11958264       0.01589308      -0.01716124       0.01294978
H        4.11238160      -1.03689362       0.23398651      -0.31665167      -0.25314736       0.03211332      -0.02232690       0.00212690      -0.00992094
C        1.50694785      -3.37078775      -0.14436248       0.97533801      -0.68235975      -0.36208352      -0.00185633       0.01128895       0.00218495
H        3.26228627      -4.40690027       1.70960933       0.32992740      -0.23271490      -0.12163801       0.00089433      -0.00638168      -0.01035609
H        3.05965877      -2.87778534       3.94791999      -0.30891456       0.03095093       0.34349535      -0.00110627      -0.00769880      -0.01617520
H        1.73121916      -2.85882598       2.77675215       0.09471470       0.42216847       0.03485102       0.00898486      -0.01610057       0.01480615
H        1.19496779      -3.38458669      -1.20311703       0.36091944       0.14902987       0.19892000       0.00092430       0.02111595      -0.00032273
H        0.70596478      -2.86740168       0.41844316       0.15897035       0.14914996       0.20431851      -0.00479497       0.00987725       0.01713080
H        1.53500936      -4.42051686       0.18713236       0.03599660      -0.45266257       0.16343216      -0.00119757       0.00331241      -0.01807919
O        4.88819190      -3.19074597       1.81537113       0.03308625      -0.85570425       0.91911871      -1.96198888      -0.23510583       0.48827316
O        5.01328063      -3.04100219      -0.35619487      -1.33292697       0.47542404      -0.52493328      -1.01652464       0.19620271      -0.38156461
O        3.84422261      -3.44896564      -0.42322854       0.08912214       0.93482933       1.10633691       0.02005244      -0.02713070      -0.00744226
