 Entering Gaussian System, Link 0=g09
 Initial command:
 /cm/shared/apps/Gaussian09/g09/l1.exe "/local/Gau-96416.inp" -scrdir="/local/"
 Entering Link 1 = /cm/shared/apps/Gaussian09/g09/l1.exe PID=     96417.
  
 Copyright (c) 1988,1990,1992,1993,1995,1998,2003,2009,2013,
            Gaussian, Inc.  All Rights Reserved.
  
 This is part of the Gaussian(R) 09 program.  It is based on
 the Gaussian(R) 03 system (copyright 2003, Gaussian, Inc.),
 the Gaussian(R) 98 system (copyright 1998, Gaussian, Inc.),
 the Gaussian(R) 94 system (copyright 1995, Gaussian, Inc.),
 the Gaussian 92(TM) system (copyright 1992, Gaussian, Inc.),
 the Gaussian 90(TM) system (copyright 1990, Gaussian, Inc.),
 the Gaussian 88(TM) system (copyright 1988, Gaussian, Inc.),
 the Gaussian 86(TM) system (copyright 1986, Carnegie Mellon
 University), and the Gaussian 82(TM) system (copyright 1983,
 Carnegie Mellon University). Gaussian is a federally registered
 trademark of Gaussian, Inc.
  
 This software contains proprietary and confidential information,
 including trade secrets, belonging to Gaussian, Inc.
  
 This software is provided under written license and may be
 used, copied, transmitted, or stored only in accord with that
 written license.
  
 The following legend is applicable only to US Government
 contracts under FAR:
  
                    RESTRICTED RIGHTS LEGEND
  
 Use, reproduction and disclosure by the US Government is
 subject to restrictions as set forth in subparagraphs (a)
 and (c) of the Commercial Computer Software - Restricted
 Rights clause in FAR 52.227-19.
  
 Gaussian, Inc.
 340 Quinnipiac St., Bldg. 40, Wallingford CT 06492
  
  
 ---------------------------------------------------------------
 Warning -- This program may not be used in any manner that
 competes with the business of Gaussian, Inc. or will provide
 assistance to any competitor of Gaussian, Inc.  The licensee
 of this program is prohibited from giving any competitor of
 Gaussian, Inc. access to this program.  By using this program,
 the user acknowledges that Gaussian, Inc. is engaged in the
 business of creating and licensing software in the field of
 computational chemistry and represents and warrants to the
 licensee that it is not a competitor of Gaussian, Inc. and that
 it will not use this program in any manner prohibited above.
 ---------------------------------------------------------------
  

 Cite this work as:
 Gaussian 09, Revision D.01,
 M. J. Frisch, G. W. Trucks, H. B. Schlegel, G. E. Scuseria, 
 M. A. Robb, J. R. Cheeseman, G. Scalmani, V. Barone, B. Mennucci, 
 G. A. Petersson, H. Nakatsuji, M. Caricato, X. Li, H. P. Hratchian, 
 A. F. Izmaylov, J. Bloino, G. Zheng, J. L. Sonnenberg, M. Hada, 
 M. Ehara, K. Toyota, R. Fukuda, J. Hasegawa, M. Ishida, T. Nakajima, 
 Y. Honda, O. Kitao, H. Nakai, T. Vreven, J. A. Montgomery, Jr., 
 J. E. Peralta, F. Ogliaro, M. Bearpark, J. J. Heyd, E. Brothers, 
 K. N. Kudin, V. N. Staroverov, T. Keith, R. Kobayashi, J. Normand, 
 K. Raghavachari, A. Rendell, J. C. Burant, S. S. Iyengar, J. Tomasi, 
 M. Cossi, N. Rega, J. M. Millam, M. Klene, J. E. Knox, J. B. Cross, 
 V. Bakken, C. Adamo, J. Jaramillo, R. Gomperts, R. E. Stratmann, 
 O. Yazyev, A. J. Austin, R. Cammi, C. Pomelli, J. W. Ochterski, 
 R. L. Martin, K. Morokuma, V. G. Zakrzewski, G. A. Voth, 
 P. Salvador, J. J. Dannenberg, S. Dapprich, A. D. Daniels, 
 O. Farkas, J. B. Foresman, J. V. Ortiz, J. Cioslowski, 
 and D. J. Fox, Gaussian, Inc., Wallingford CT, 2013.
 
 ******************************************
 Gaussian 09:  ES64L-G09RevD.01 24-Apr-2013
                16-Feb-2021 
 ******************************************
 %nprocshared=1
 Will use up to    1 processors via shared memory.
 ----------------------------------------------------------------------
 #P upm6 scf=qc opt(calcall, ts, noeigentest, cartesian,maxcycle=100) N
 oSymm, guess=mix
 ----------------------------------------------------------------------
 1/5=1,6=100,10=4,11=1,14=-1,18=10,26=1,38=1/1,3;
 2/12=2,15=1,17=6,18=5,29=2,40=1/2;
 3/5=2,16=1,25=1,41=3900000,71=2,116=2,140=1/1,2,3;
 4/13=-1,35=1/1;
 5/5=2,8=3,35=1,38=5/8;
 8/6=4,10=90,11=11/1;
 11/6=1,8=1,9=11,15=111,16=1,31=1/1,2,10;
 10/6=1,31=1/2;
 6/7=2,8=2,9=2,10=2,18=1,28=1/1;
 7/7=1,10=1,25=1,30=1/1,2,3,16;
 1/5=1,6=100,10=4,11=1,14=-1,18=10,26=1/3(3);
 2/15=1,29=1/2;
 7/7=1,8=1,9=1,25=1,30=1,44=-1/16;
 99/12=1/99;
 2/15=1,29=1/2;
 3/5=2,16=1,25=1,41=3900000,71=2,116=2,135=20,140=1/1,2,3;
 4/5=5,16=3,35=1/1;
 5/5=2,8=3,35=1,38=5/8;
 8/6=4,10=90,11=11/1;
 11/6=1,8=1,9=11,15=111,16=1,31=1/1,2,10;
 10/6=1,31=1/2;
 7/7=1,10=1,25=1,30=1/1,2,3,16;
 1/5=1,6=100,10=4,11=1,14=-1,18=10,26=1/3(-8);
 2/15=1,29=1/2;
 6/7=2,8=2,9=2,10=2,18=1,19=2,28=1/1;
 7/7=1,8=1,9=1,25=1,30=1,44=-1/16;
 99/12=1/99;
 Leave Link    1 at Tue Feb 16 09:20:56 2021, MaxMem=           0 cpu:         0.0
 (Enter /cm/shared/apps/Gaussian09/g09/l101.exe)
 ------------------------------
 Gaussian input prepared by ASE
 ------------------------------
 Symbolic Z-matrix:
 Charge =  0 Multiplicity = 1
 C                    -0.21319   0.28525   1.41576 
 C                    -0.19827  -0.16684  -0.04936 
 C                     0.61534   0.73031  -0.91305 
 C                     0.64787   0.59236  -2.32107 
 C                    -1.13487  -0.18587   3.72176 
 C                    -1.00814  -0.68162   2.29799 
 H                     0.82341   0.37381   1.80236 
 H                    -0.64259   1.30556   1.50363 
 H                     0.20601  -1.20305  -0.1227 
 H                    -1.23776  -0.2341   -0.43917 
 H                     1.15546   1.55564  -0.43793 
 H                     3.49801   0.27324  -1.47792 
 C                    -0.28155  -0.22405  -3.14773 
 H                    -1.59479  -0.9039    4.42138 
 H                    -2.02597  -0.837     1.88241 
 H                    -0.53385  -1.68444   2.29416 
 H                    -0.26539  -1.28325  -2.85292 
 H                     0.00147  -0.18666  -4.21163 
 H                    -1.31615   0.13402  -3.06857 
 O                    -0.77363   0.90944   4.08474 
 O                     2.52875   0.36688  -1.53857 
 O                     1.74983   1.06426  -2.84355 
 
 NAtoms=     22 NQM=       22 NQMF=       0 NMMI=      0 NMMIF=      0
                NMic=       0 NMicF=      0.
                    Isotopes and Nuclear Properties:
 (Nuclear quadrupole moments (NQMom) in fm**2, nuclear magnetic moments (NMagM)
  in nuclear magnetons)

  Atom         1           2           3           4           5           6           7           8           9          10
 IAtWgt=          12          12          12          12          12          12           1           1           1           1
 AtmWgt=  12.0000000  12.0000000  12.0000000  12.0000000  12.0000000  12.0000000   1.0078250   1.0078250   1.0078250   1.0078250
 NucSpn=           0           0           0           0           0           0           1           1           1           1
 AtZEff=   0.0000000   0.0000000   0.0000000   0.0000000   0.0000000   0.0000000   0.0000000   0.0000000   0.0000000   0.0000000
 NQMom=    0.0000000   0.0000000   0.0000000   0.0000000   0.0000000   0.0000000   0.0000000   0.0000000   0.0000000   0.0000000
 NMagM=    0.0000000   0.0000000   0.0000000   0.0000000   0.0000000   0.0000000   2.7928460   2.7928460   2.7928460   2.7928460
 AtZNuc=   6.0000000   6.0000000   6.0000000   6.0000000   6.0000000   6.0000000   1.0000000   1.0000000   1.0000000   1.0000000

  Atom        11          12          13          14          15          16          17          18          19          20
 IAtWgt=           1           1          12           1           1           1           1           1           1          16
 AtmWgt=   1.0078250   1.0078250  12.0000000   1.0078250   1.0078250   1.0078250   1.0078250   1.0078250   1.0078250  15.9949146
 NucSpn=           1           1           0           1           1           1           1           1           1           0
 AtZEff=   0.0000000   0.0000000   0.0000000   0.0000000   0.0000000   0.0000000   0.0000000   0.0000000   0.0000000   0.0000000
 NQMom=    0.0000000   0.0000000   0.0000000   0.0000000   0.0000000   0.0000000   0.0000000   0.0000000   0.0000000   0.0000000
 NMagM=    2.7928460   2.7928460   0.0000000   2.7928460   2.7928460   2.7928460   2.7928460   2.7928460   2.7928460   0.0000000
 AtZNuc=   1.0000000   1.0000000   6.0000000   1.0000000   1.0000000   1.0000000   1.0000000   1.0000000   1.0000000   8.0000000

  Atom        21          22
 IAtWgt=          16          16
 AtmWgt=  15.9949146  15.9949146
 NucSpn=           0           0
 AtZEff=   0.0000000   0.0000000
 NQMom=    0.0000000   0.0000000
 NMagM=    0.0000000   0.0000000
 AtZNuc=   8.0000000   8.0000000
 Leave Link  101 at Tue Feb 16 09:20:57 2021, MaxMem=    33554432 cpu:         0.1
 (Enter /cm/shared/apps/Gaussian09/g09/l103.exe)

 GradGradGradGradGradGradGradGradGradGradGradGradGradGradGradGradGradGrad
 Berny optimization.
 Initialization pass.
 No Z-matrix variables, so optimization will use Cartesian coordinates.
 Trust Radius=3.00D-01 FncErr=1.00D-07 GrdErr=1.00D-07
 Number of steps in this run=    100 maximum allowed number of steps=    132.
 Search for a saddle point of order  1.
 GradGradGradGradGradGradGradGradGradGradGradGradGradGradGradGradGradGrad

 Leave Link  103 at Tue Feb 16 09:20:57 2021, MaxMem=    33554432 cpu:         0.0
 (Enter /cm/shared/apps/Gaussian09/g09/l202.exe)
 ---------------------------------------------------------------------------------------------------
                            Z-MATRIX (ANGSTROMS AND DEGREES)
   CD    Cent   Atom    N1       Length/X        N2       Alpha/Y        N3        Beta/Z          J
 ---------------------------------------------------------------------------------------------------
      1      1  C        0  -0.213186          0.285251          1.415755
      2      2  C        0  -0.198270         -0.166839         -0.049358
      3      3  C        0   0.615344          0.730312         -0.913055
      4      4  C        0   0.647866          0.592358         -2.321067
      5      5  C        0  -1.134866         -0.185870          3.721756
      6      6  C        0  -1.008142         -0.681621          2.297992
      7      7  H        0   0.823409          0.373808          1.802358
      8      8  H        0  -0.642586          1.305556          1.503627
      9      9  H        0   0.206005         -1.203046         -0.122698
     10     10  H        0  -1.237762         -0.234100         -0.439170
     11     11  H        0   1.155457          1.555643         -0.437926
     12     12  H        0   3.498013          0.273236         -1.477923
     13     13  C        0  -0.281547         -0.224051         -3.147732
     14     14  H        0  -1.594788         -0.903897          4.421378
     15     15  H        0  -2.025967         -0.837002          1.882405
     16     16  H        0  -0.533848         -1.684438          2.294164
     17     17  H        0  -0.265391         -1.283248         -2.852922
     18     18  H        0   0.001470         -0.186656         -4.211628
     19     19  H        0  -1.316152          0.134017         -3.068571
     20     20  O        0  -0.773632          0.909441          4.084741
     21     21  O        0   2.528747          0.366884         -1.538572
     22     22  O        0   1.749828          1.064262         -2.843553
 ---------------------------------------------------------------------------------------------------
                         Z-Matrix orientation:                         
 ---------------------------------------------------------------------
 Center     Atomic      Atomic             Coordinates (Angstroms)
 Number     Number       Type             X           Y           Z
 ---------------------------------------------------------------------
      1          6           0       -0.213186    0.285251    1.415755
      2          6           0       -0.198270   -0.166839   -0.049358
      3          6           0        0.615344    0.730312   -0.913055
      4          6           0        0.647866    0.592358   -2.321067
      5          6           0       -1.134866   -0.185870    3.721756
      6          6           0       -1.008142   -0.681621    2.297992
      7          1           0        0.823409    0.373808    1.802358
      8          1           0       -0.642586    1.305556    1.503627
      9          1           0        0.206005   -1.203046   -0.122698
     10          1           0       -1.237762   -0.234100   -0.439170
     11          1           0        1.155457    1.555643   -0.437926
     12          1           0        3.498013    0.273236   -1.477923
     13          6           0       -0.281547   -0.224051   -3.147732
     14          1           0       -1.594788   -0.903897    4.421378
     15          1           0       -2.025967   -0.837002    1.882405
     16          1           0       -0.533848   -1.684438    2.294164
     17          1           0       -0.265391   -1.283248   -2.852922
     18          1           0        0.001470   -0.186656   -4.211628
     19          1           0       -1.316152    0.134017   -3.068571
     20          8           0       -0.773632    0.909441    4.084741
     21          8           0        2.528747    0.366884   -1.538572
     22          8           0        1.749828    1.064262   -2.843553
 ---------------------------------------------------------------------
                    Distance matrix (angstroms):
                    1          2          3          4          5
     1  C    0.000000
     2  C    1.533351   0.000000
     3  C    2.511553   1.487556   0.000000
     4  C    3.847020   2.540273   1.415128   0.000000
     5  C    2.527665   3.885728   5.038264   6.348187   0.000000
     6  C    1.531385   2.535931   3.865241   5.069624   1.512922
     7  H    1.109879   2.182883   2.746607   4.132942   2.798601
     8  H    1.110463   2.185664   2.784537   4.099048   2.717865
     9  H    2.181190   1.114694   2.128402   2.872549   4.196715
    10  H    2.181795   1.112215   2.142116   2.789294   4.162478
    11  H    2.631200   2.224973   1.094824   2.175266   5.057806
    12  H    4.706009   3.987102   2.972840   2.989326   6.979328
    13  C    4.592329   3.100021   2.590175   1.487854   6.922390
    14  H    3.515205   4.741413   6.000958   7.261463   1.102979
    15  H    2.182519   2.742500   4.153023   5.182821   2.145052
    16  H    2.180390   2.812084   4.175873   5.280208   2.155215
    17  H    4.548024   3.018418   2.931417   2.152860   6.722100
    18  H    5.651214   4.167107   3.478255   2.144507   8.014352
    19  H    4.620453   3.233546   2.955080   2.150862   6.800275
    20  O    2.797713   4.310475   5.190309   6.569290   1.209113
    21  O    4.031490   3.152656   2.045595   2.049597   6.434179
    22  O    4.754155   3.621909   2.263934   1.307672   7.279257
                    6          7          8          9         10
     6  C    0.000000
     7  H    2.171212   0.000000
     8  H    2.171064   1.762537   0.000000
     9  H    2.757858   2.563883   3.107752   0.000000
    10  H    2.782995   3.105226   2.549360   1.767336   0.000000
    11  H    4.143882   2.554577   2.658031   2.934483   2.988424
    12  H    5.956067   4.233659   5.205755   3.854006   4.874830
    13  C    5.513005   5.107030   4.909703   3.216671   2.872413
    14  H    2.214120   3.786749   3.781752   4.897038   4.919454
    15  H    1.110326   3.097001   2.578327   3.022603   2.524771
    16  H    1.109330   2.514040   3.094647   2.573003   3.173341
    17  H    5.238851   5.059936   5.081702   2.771781   2.805783
    18  H    6.606017   6.095714   5.941855   4.218321   3.971068
    19  H    5.436923   5.325521   4.767723   3.575314   2.656201
    20  O    2.403943   2.836673   2.614619   4.808829   4.689230
    21  O    5.322422   3.751005   4.493710   3.140781   3.969440
    22  O    6.090156   4.787428   4.967881   3.863564   4.048765
                   11         12         13         14         15
    11  H    0.000000
    12  H    2.865961   0.000000
    13  C    3.546173   4.161807   0.000000
    14  H    6.101313   7.881880   7.712213   0.000000
    15  H    4.607618   6.560396   5.359197   2.576194   0.000000
    16  H    4.562476   5.858074   5.640090   2.501975   1.764685
    17  H    3.988774   4.298428   1.099578   7.404502   5.071695
    18  H    4.313713   4.462114   1.101531   8.808591   6.455284
    19  H    3.879454   5.072054   1.097674   7.566653   5.094986
    20  O    4.959181   7.042368   7.337277   2.018865   3.077124
    21  O    2.123792   0.975667   3.291861   7.357950   5.822186
    22  O    2.526217   2.355169   2.424615   8.236464   6.340829
                   16         17         18         19         20
    16  H    0.000000
    17  H    5.169673   0.000000
    18  H    6.697406   1.766298   0.000000
    19  H    5.716441   1.777426   1.773567   0.000000
    20  O    3.160992   7.293653   8.404282   7.215642   0.000000
    21  O    5.317638   3.501094   3.720048   4.144680   6.543831
    22  O    6.258328   3.093865   2.548172   3.211888   7.375166
                   21         22
    21  O    0.000000
    22  O    1.672132   0.000000
 Symmetry turned off by external request.
 Stoichiometry    C7H12O3
 Framework group  C1[X(C7H12O3)]
 Deg. of freedom    60
 Full point group                 C1      NOp   1
 Rotational constants (GHZ):      3.1818715      0.4599277      0.4250238
 Leave Link  202 at Tue Feb 16 09:20:57 2021, MaxMem=    33554432 cpu:         0.0
 (Enter /cm/shared/apps/Gaussian09/g09/l301.exe)
 Standard basis: VSTO-6G (5D, 7F)
 Ernie: Thresh=  0.10000D-02 Tol=  0.10000D-05 Strict=F.
  NNHCO=     0 NNPyr=     0 NCTC=     0               EPep=         0.000000000
    EC=       250.971454672  ECS=         4.154479334   EG=         0.349468334
   EHC=         0.001181518  EAt=       -66.250074573  AtH=         3.187411664
 EPDDG=         0.000000000  ECC=       255.476583858 EAtT=        69.437486237
    52 basis functions,   312 primitive gaussians,    52 cartesian basis functions
    29 alpha electrons       29 beta electrons
       nuclear repulsion energy       324.9140700955 Hartrees.
 IExCor=    0 DFT=F Ex=HF Corr=None ExCW=0 ScaHFX=  1.000000
 ScaDFX=  1.000000  1.000000  1.000000  1.000000 ScalE2=  1.000000  1.000000
 IRadAn=      0 IRanWt=     -1 IRanGd=            0 ICorTp=0 IEmpDi=  4
 Integral buffers will be    131072 words long.
 Regular integral format.
 Two-electron integral symmetry is turned off.
 Leave Link  301 at Tue Feb 16 09:20:57 2021, MaxMem=    33554432 cpu:         0.0
 (Enter /cm/shared/apps/Gaussian09/g09/l302.exe)
 Do NDO integrals.
 NPDir=0 NMtPBC=     1 NCelOv=     1 NCel=       1 NClECP=     1 NCelD=      1
         NCelK=      1 NCelE2=     1 NClLst=     1 CellRange=     0.0.
 One-electron integrals computed using PRISM.
 NBasis=    52 RedAO= F EigKep=  0.00D+00  NBF=    52
 NBsUse=    52 1.00D-04 EigRej=  0.00D+00 NBFU=    52
 Leave Link  302 at Tue Feb 16 09:20:57 2021, MaxMem=    33554432 cpu:         0.1
 (Enter /cm/shared/apps/Gaussian09/g09/l303.exe)
 DipDrv:  MaxL=1.
 Leave Link  303 at Tue Feb 16 09:20:57 2021, MaxMem=    33554432 cpu:         0.0
 (Enter /cm/shared/apps/Gaussian09/g09/l401.exe)
 Simple Huckel Guess.
 JPrj=0 DoOrth=F DoCkMO=T.
 Mixing orbitals, IMix= 1 IMixAn=  0 NRI=1 NE=   29 Coef=  7.07106781D-01  7.07106781D-01
 Mixing orbitals, IMix= 1 IMixAn=  0 NRI=1 NE=   29 Coef= -7.07106781D-01  7.07106781D-01
 Initial guess <Sx>= 0.0000 <Sy>= 0.0000 <Sz>= 0.0000 <S**2>= 1.0000 S= 0.6180
 Leave Link  401 at Tue Feb 16 09:20:57 2021, MaxMem=    33554432 cpu:         0.0
 (Enter /cm/shared/apps/Gaussian09/g09/l508.exe)
 Direct SCF.
 Tight linear equation convergence will be used.
 UPM6 wavefunction.
 Quadratic Convergence SCF Method.
 Line search only if initial step raises energy.
 Two-electron integral symmetry not used.
 ReadGW:  IGet=1 IStart=       59293 Next=       59293 LGW=           0.
 Keep J ints in memory in canonical form, NReq=905730.
 FoFCou: FMM=F IPFlag=           0 FMFlag=           0 FMFlg1=           0
         NFxFlg=           0 DoJE=F BraDBF=F KetDBF=F FulRan=T
         wScrn=  0.000000 ICntrl=     600 IOpCl=  2 I1Cent=           0 NGrid=           0
         NMat0=    1 NMatS0=    112 NMatT0=    0 NMatD0=    1 NMtDS0=    0 NMtDT0=    0
 Symmetry not used in FoFCou.
 Iteration   1 EE= 0.411655356109350                                    Grad=4.585D-01 Max rot=    6.1340 deg.
 Gradient too large for Newton-Raphson -- use scaled steepest descent instead.
 Alpha Gap=     0.331 HL deriv= 4.41D-02
  Beta Gap=     0.264 HL deriv= 1.97D-01
     ILin= 1 X=0.000D+00 Y= 4.116553561093D-01 DE= 0.00D+00 F= -5.21D-01
     ILin= 2 X=3.000D-01 Y= 2.690389504659D-01 DE=-1.43D-01 F= -4.29D-01
     ILin= 3 X=4.000D-01 Y= 2.277740854580D-01 DE=-1.84D-01 F= -3.97D-01
     ILin= 4 X=6.000D-01 Y= 1.550268697351D-01 DE=-2.57D-01 F= -3.31D-01
     ILin= 5 X=8.000D-01 Y= 9.571656229753D-02 DE=-3.16D-01 F= -2.62D-01
     ILin= 6 X=1.200D+00 Y= 1.916128398284D-02 DE=-3.92D-01 F= -1.19D-01
     ILin= 7 X=1.700D+00 Y= 6.231487402715D-03 DE=-4.05D-01 F=  6.91D-02
     Accept linear search using points  6 and  7.
     An  expanding polynomial of degree  7 produced  1.4687
 Iteration   2 EE= 0.496703558667377E-03 Delta-E=       -0.411158652551 Grad=1.337D-01 Max rot=    1.8282 deg.
 Gradient too large for Newton-Raphson -- use scaled steepest descent instead.
 Alpha Gap=     0.403 HL deriv= 1.99D-02
  Beta Gap=     0.307 HL deriv= 1.02D-01
     ILin= 1 X=0.000D+00 Y= 4.967035586674D-04 DE= 0.00D+00 F= -4.75D-02
     ILin= 2 X=7.000D-01 Y=-2.660901805871D-02 DE=-2.71D-02 F= -2.97D-02
     ILin= 3 X=1.000D+00 Y=-3.430632487567D-02 DE=-3.48D-02 F= -2.16D-02
     ILin= 4 X=1.600D+00 Y=-4.228392344629D-02 DE=-4.28D-02 F= -4.85D-03
     ILin= 5 X=2.600D+00 Y=-3.258661976730D-02 DE=-3.31D-02 F=  2.45D-02
     An  expanding polynomial of degree  5 produced  1.7693
     Minimum is close to point  4 DX=  1.69D-01 DF= -4.12D-04 DXR=  9.57D-02 DFR=  9.62D-03 which will be used.
 Iteration   3 EE=-0.422839234462913E-01 Delta-E=       -0.042780627005 Grad=5.435D-02 Max rot=    1.2549 deg.
 Gradient too large for Newton-Raphson -- use scaled steepest descent instead.
 Alpha Gap=     0.389 HL deriv= 2.50D-03
  Beta Gap=     0.355 HL deriv= 6.16D-02
     ILin= 1 X=0.000D+00 Y=-4.228392344629D-02 DE= 0.00D+00 F= -9.47D-03
     ILin= 2 X=1.600D+00 Y=-5.084742425038D-02 DE=-8.56D-03 F= -1.23D-03
     ILin= 3 X=2.800D+00 Y=-4.863592056324D-02 DE=-6.35D-03 F=  4.91D-03
     An  expanding polynomial of degree  3 produced  1.8414
 Iteration   4 EE=-0.509955284825310E-01 Delta-E=       -0.008711605036 Grad=3.715D-02 Max rot=    0.6871 deg.
 Gradient too large for Newton-Raphson -- use scaled steepest descent instead.
 Alpha Gap=     0.388 HL deriv= 1.35D-02
  Beta Gap=     0.357 HL deriv= 3.36D-02
     ILin= 1 X=0.000D+00 Y=-5.099552848253D-02 DE= 0.00D+00 F= -3.89D-03
     ILin= 2 X=1.800D+00 Y=-5.341160211219D-02 DE=-2.42D-03 F=  1.21D-03
     Accept linear search using points  1 and  2.
     An  expanding polynomial of degree  2 produced  1.6191
 Iteration   5 EE=-0.535847438302994E-01 Delta-E=       -0.002589215348 Grad=2.437D-02 Max rot=    0.3396 deg.
 Gradient too large for Newton-Raphson -- use scaled steepest descent instead.
 Alpha Gap=     0.381 HL deriv= 1.98D-03
  Beta Gap=     0.370 HL deriv= 1.29D-02
     ILin= 1 X=0.000D+00 Y=-5.358474383030D-02 DE= 0.00D+00 F= -1.58D-03
     ILin= 2 X=1.700D+00 Y=-5.456574320141D-02 DE=-9.81D-04 F=  4.29D-04
     Accept linear search using points  1 and  2.
     An  expanding polynomial of degree  2 produced  1.5431
 Iteration   6 EE=-0.546183808322667E-01 Delta-E=       -0.001033637002 Grad=1.433D-02 Max rot=    0.2418 deg.
 Gradient too large for Newton-Raphson -- use scaled steepest descent instead.
 Alpha Gap=     0.382 HL deriv= 6.23D-03
  Beta Gap=     0.366 HL deriv= 1.15D-02
     ILin= 1 X=0.000D+00 Y=-5.461838083227D-02 DE= 0.00D+00 F= -5.99D-04
     ILin= 2 X=1.600D+00 Y=-5.503884183020D-02 DE=-4.20D-04 F=  7.29D-05
     Accept linear search using points  1 and  2.
     An  expanding polynomial of degree  2 produced  1.5362
     Minimum is close to point  2 DX= -6.38D-02 DF= -1.44D-06 DXR=  4.16D-02 DFR=  3.42D-03 which will be used.
 Iteration   7 EE=-0.550388418301964E-01 Delta-E=       -0.000420460998 Grad=9.801D-03 Max rot=    0.1066 deg.
 QCNR:  CnvC1=3.65D-09 CnvC2=3.65D-08
 LinEq1:  Iter=  0 NonCon=     1 RMS=4.13D-04 Max=6.39D-03 NDo=     1
 AX will form     1 AO Fock derivatives at one time.
 LinEq1:  Iter=  1 NonCon=     1 RMS=1.54D-04 Max=1.92D-03 NDo=     1
 LinEq1:  Iter=  2 NonCon=     1 RMS=2.00D-05 Max=4.39D-04 NDo=     1
 LinEq1:  Iter=  3 NonCon=     1 RMS=4.94D-06 Max=6.03D-05 NDo=     1
 LinEq1:  Iter=  4 NonCon=     1 RMS=7.93D-07 Max=7.99D-06 NDo=     1
 LinEq1:  Iter=  5 NonCon=     1 RMS=1.79D-07 Max=2.46D-06 NDo=     1
 LinEq1:  Iter=  6 NonCon=     1 RMS=4.06D-08 Max=4.76D-07 NDo=     1
 LinEq1:  Iter=  7 NonCon=     1 RMS=8.41D-09 Max=7.85D-08 NDo=     1
 LinEq1:  Iter=  8 NonCon=     0 RMS=1.69D-09 Max=1.55D-08 NDo=     1
 Linear equations converged to 3.652D-09 3.652D-08 after     8 iterations.
 Angle between quadratic step and gradient=  52.61 degrees.
     ILin= 1 X=0.000D+00 Y=-5.503884183020D-02 DE= 0.00D+00 F= -7.85D-04
     ILin= 2 X=1.000D+00 Y=-5.542213547653D-02 DE=-3.83D-04 F=  2.86D-05
     Accept linear search using points  1 and  2.
     An  expanding polynomial of degree  2 produced  0.9660
     Minimum is close to point  2 DX= -3.40D-02 DF= -4.85D-07 DXR=  3.51D-02 DFR=  1.27D-03 which will be used.
 Iteration   8 EE=-0.554221354765332E-01 Delta-E=       -0.000383293646 Grad=3.516D-04 Max rot=    0.0081 deg.
 QCNR:  CnvC1=3.52D-09 CnvC2=3.52D-08
 LinEq1:  Iter=  0 NonCon=     1 RMS=2.17D-05 Max=4.01D-04 NDo=     1
 LinEq1:  Iter=  1 NonCon=     1 RMS=3.60D-06 Max=5.00D-05 NDo=     1
 LinEq1:  Iter=  2 NonCon=     1 RMS=6.92D-07 Max=9.10D-06 NDo=     1
 LinEq1:  Iter=  3 NonCon=     1 RMS=1.56D-07 Max=2.50D-06 NDo=     1
 LinEq1:  Iter=  4 NonCon=     1 RMS=3.55D-08 Max=3.65D-07 NDo=     1
 LinEq1:  Iter=  5 NonCon=     1 RMS=7.51D-09 Max=6.97D-08 NDo=     1
 LinEq1:  Iter=  6 NonCon=     0 RMS=1.46D-09 Max=1.64D-08 NDo=     1
 Linear equations converged to 3.516D-09 3.516D-08 after     6 iterations.
 Angle between quadratic step and gradient=  32.44 degrees.
     ILin= 1 X=0.000D+00 Y=-5.542213547653D-02 DE= 0.00D+00 F= -2.05D-06
     ILin= 2 X=1.000D+00 Y=-5.542316096364D-02 DE=-1.03D-06 F= -8.21D-09
     Reject lnstep minimum 1.004D+00 FVal=-5.542316098026D-02 Lims=  0.00D+00  1.00D+00
     ILin= 3 X=2.000D+00 Y=-5.542215747062D-02 DE=-2.20D-08 F=  2.01D-06
     An  expanding polynomial of degree  3 produced  1.0054
     Minimum is close to point  2 DX=  5.42D-03 DF= -2.98D-11 DXR=  5.39D-03 DFR=  2.91D-05 which will be used.
 Iteration   9 EE=-0.554231609636417E-01 Delta-E=       -0.000001025487 Grad=5.504D-06 Max rot=    0.0001 deg.
 QCNR:  CnvC1=5.50D-11 CnvC2=5.50D-10
 LinEq1:  Iter=  0 NonCon=     1 RMS=2.34D-07 Max=3.41D-06 NDo=     1
 LinEq1:  Iter=  1 NonCon=     1 RMS=6.52D-08 Max=8.92D-07 NDo=     1
 LinEq1:  Iter=  2 NonCon=     1 RMS=1.36D-08 Max=1.39D-07 NDo=     1
 LinEq1:  Iter=  3 NonCon=     1 RMS=3.25D-09 Max=5.06D-08 NDo=     1
 LinEq1:  Iter=  4 NonCon=     1 RMS=6.37D-10 Max=8.95D-09 NDo=     1
 LinEq1:  Iter=  5 NonCon=     1 RMS=1.44D-10 Max=2.43D-09 NDo=     1
 LinEq1:  Iter=  6 NonCon=     0 RMS=2.22D-11 Max=2.39D-10 NDo=     1
 Linear equations converged to 5.504D-11 5.504D-10 after     6 iterations.
 Angle between quadratic step and gradient=  52.91 degrees.
     ILin= 1 X=0.000D+00 Y=-5.542316096364D-02 DE= 0.00D+00 F= -2.35D-10
     ILin= 2 X=1.000D+00 Y=-5.542316108040D-02 DE=-1.17D-10
 Iteration  10 EE=-0.554231610803981E-01 Delta-E=       -0.000000000117 Grad=5.562D-08 Max rot=    0.0000 deg.
 Rotation gradient small -- convergence achieved.
 SCF Done:  E(UPM6) = -0.554231610804E-01 a.u. after   10 cycles
            Convg  =    0.5562D-07                    44 Fock formations.
              S**2 =  0.6710                  -V/T =  0.9984
 <Sx>= 0.0000 <Sy>= 0.0000 <Sz>= 0.0000 <S**2>= 0.6710 S= 0.4597
 <L.S>= 0.000000000000E+00
 Annihilation of the first spin contaminant:
 S**2 before annihilation     0.6710,   after     0.0616
 Leave Link  508 at Tue Feb 16 09:20:57 2021, MaxMem=    33554432 cpu:         0.1
 (Enter /cm/shared/apps/Gaussian09/g09/l801.exe)
 Range of M.O.s used for correlation:     1    52
 NBasis=    52 NAE=    29 NBE=    29 NFC=     0 NFV=     0
 NROrb=     52 NOA=    29 NOB=    29 NVA=    23 NVB=    23
 Leave Link  801 at Tue Feb 16 09:20:57 2021, MaxMem=    33554432 cpu:         0.0
 (Enter /cm/shared/apps/Gaussian09/g09/l1101.exe)
 Using compressed storage, NAtomX=    22.
 Will process     23 centers per pass.
 Leave Link 1101 at Tue Feb 16 09:20:57 2021, MaxMem=    33554432 cpu:         0.0
 (Enter /cm/shared/apps/Gaussian09/g09/l1102.exe)
 Symmetrizing basis deriv contribution to polar:
 IMax=3 JMax=2 DiffMx= 0.00D+00
 Leave Link 1102 at Tue Feb 16 09:20:57 2021, MaxMem=    33554432 cpu:         0.0
 (Enter /cm/shared/apps/Gaussian09/g09/l1110.exe)
 Forming Gx(P) for the SCF density, NAtomX=    22.
 Integral derivatives from FoFJK, PRISM(SPDF).
 Do as many integral derivatives as possible in FoFJK.
 G2DrvN: MDV=      33495261.
 G2DrvN: will do    23 centers at a time, making    1 passes.
 Calling FoFCou, ICntrl=  3107 FMM=F I1Cent=   0 AccDes= 0.00D+00.
 FoFJK:  IHMeth=40 ICntrl=    3107 DoSepK=F KAlg= 0 I1Cent=   0 FoldK=F
 IRaf=         0 NMat=   1 IRICut=       1 DoRegI=T DoRafI=F ISym2E= 0.
 FoFCou: FMM=F IPFlag=           0 FMFlag=      100000 FMFlg1=           0
         NFxFlg=           0 DoJE=F BraDBF=F KetDBF=F FulRan=T
         wScrn=  0.000000 ICntrl=    3107 IOpCl=  1 I1Cent=           0 NGrid=           0
         NMat0=    1 NMatS0=      1 NMatT0=    0 NMatD0=    1 NMtDS0=    0 NMtDT0=    0
 Symmetry not used in FoFCou.
 End of G2Drv F.D. properties file   721 does not exist.
 End of G2Drv F.D. properties file   722 does not exist.
 End of G2Drv F.D. properties file   788 does not exist.
 Leave Link 1110 at Tue Feb 16 09:20:57 2021, MaxMem=    33554432 cpu:         0.0
 (Enter /cm/shared/apps/Gaussian09/g09/l1002.exe)
 Minotr:  UHF open shell wavefunction.
          IDoAtm=1111111111111111111111
          Direct CPHF calculation.
          Differentiating once with respect to electric field.
                with respect to dipole field.
          Differentiating once with respect to nuclear coordinates.
          Electric field/nuclear overlap derivatives assumed to be zero.
          Requested convergence is 1.0D-08 RMS, and 1.0D-07 maximum.
          NewPWx=T KeepS1=F KeepF1=F KeepIn=T MapXYZ=F SortEE=F KeepMc=T.
          MDV=      33495213 using IRadAn=       2.
 Keep J ints in memory in canonical form, NReq=888555.
 FoFCou: FMM=F IPFlag=           0 FMFlag=           0 FMFlg1=           0
         NFxFlg=           0 DoJE=F BraDBF=F KetDBF=F FulRan=T
         wScrn=  0.000000 ICntrl=     600 IOpCl=  2 I1Cent=           0 NGrid=           0
         NMat0=    1 NMatS0=    112 NMatT0=    0 NMatD0=    1 NMtDS0=    0 NMtDT0=    0
 Symmetry not used in FoFCou.
          Solving linear equations separately, MaxMat=       0.
          There are    69 degrees of freedom in the 1st order CPHF.  IDoFFX=5 NUNeed=    69.
 LinEq1:  Iter=  0 NonCon=    69 RMS=1.91D-01 Max=2.52D+00 NDo=    69
 AX will form    69 AO Fock derivatives at one time.
 LinEq1:  Iter=  1 NonCon=    69 RMS=3.50D-02 Max=4.29D-01 NDo=    69
 LinEq1:  Iter=  2 NonCon=    69 RMS=9.81D-03 Max=2.02D-01 NDo=    69
 LinEq1:  Iter=  3 NonCon=    69 RMS=1.90D-03 Max=2.13D-02 NDo=    69
 LinEq1:  Iter=  4 NonCon=    69 RMS=3.83D-04 Max=4.45D-03 NDo=    69
 LinEq1:  Iter=  5 NonCon=    69 RMS=9.07D-05 Max=1.26D-03 NDo=    69
 LinEq1:  Iter=  6 NonCon=    69 RMS=1.56D-05 Max=2.19D-04 NDo=    69
 LinEq1:  Iter=  7 NonCon=    58 RMS=3.30D-06 Max=3.83D-05 NDo=    69
 LinEq1:  Iter=  8 NonCon=    22 RMS=6.61D-07 Max=7.20D-06 NDo=    69
 LinEq1:  Iter=  9 NonCon=     4 RMS=1.51D-07 Max=2.03D-06 NDo=    69
 LinEq1:  Iter= 10 NonCon=     3 RMS=3.07D-08 Max=3.80D-07 NDo=    69
 LinEq1:  Iter= 11 NonCon=     0 RMS=5.68D-09 Max=6.64D-08 NDo=    69
 Linear equations converged to 1.000D-08 1.000D-07 after    11 iterations.
 FullF1:  Do perturbations    1 to     3.
 Isotropic polarizability for W=    0.000000       72.78 Bohr**3.
 End of Minotr F.D. properties file   721 does not exist.
 End of Minotr F.D. properties file   722 does not exist.
 End of Minotr F.D. properties file   788 does not exist.
 Leave Link 1002 at Tue Feb 16 09:20:57 2021, MaxMem=    33554432 cpu:         0.4
 (Enter /cm/shared/apps/Gaussian09/g09/l601.exe)
 Copying SCF densities to generalized density rwf, IOpCl= 1 IROHF=0.

 **********************************************************************

            Population analysis using the SCF density.

 **********************************************************************

 Alpha  occ. eigenvalues --   -1.17760  -1.14209  -1.06685  -1.02734  -1.00972
 Alpha  occ. eigenvalues --   -0.96108  -0.88901  -0.80501  -0.74705  -0.70020
 Alpha  occ. eigenvalues --   -0.65440  -0.62977  -0.61479  -0.59592  -0.57949
 Alpha  occ. eigenvalues --   -0.55148  -0.54385  -0.53540  -0.51039  -0.50565
 Alpha  occ. eigenvalues --   -0.49642  -0.49254  -0.47589  -0.46187  -0.43999
 Alpha  occ. eigenvalues --   -0.43300  -0.37970  -0.37784  -0.35433
 Alpha virt. eigenvalues --   -0.03006   0.00876   0.04133   0.10532   0.11746
 Alpha virt. eigenvalues --    0.12316   0.13545   0.13922   0.15675   0.15903
 Alpha virt. eigenvalues --    0.16597   0.17203   0.17534   0.18173   0.18641
 Alpha virt. eigenvalues --    0.18813   0.20446   0.20848   0.20972   0.21781
 Alpha virt. eigenvalues --    0.22665   0.22806   0.23028
  Beta  occ. eigenvalues --   -1.17760  -1.13091  -1.06740  -1.00843  -0.96433
  Beta  occ. eigenvalues --   -0.94949  -0.89058  -0.80531  -0.74757  -0.69900
  Beta  occ. eigenvalues --   -0.63804  -0.62726  -0.61490  -0.59466  -0.58001
  Beta  occ. eigenvalues --   -0.55101  -0.54449  -0.52532  -0.50949  -0.50142
  Beta  occ. eigenvalues --   -0.49617  -0.48219  -0.47386  -0.46038  -0.44142
  Beta  occ. eigenvalues --   -0.41317  -0.37788  -0.36543  -0.33119
  Beta virt. eigenvalues --   -0.00440   0.00876   0.03098   0.10532   0.11838
  Beta virt. eigenvalues --    0.12055   0.13544   0.14077   0.15467   0.15728
  Beta virt. eigenvalues --    0.16378   0.17180   0.17513   0.18147   0.18515
  Beta virt. eigenvalues --    0.18816   0.20399   0.20737   0.20860   0.21533
  Beta virt. eigenvalues --    0.22514   0.22804   0.24117
          Condensed to atoms (all electrons):
               1          2          3          4          5          6
     1  C    4.208628   0.000000   0.000000   0.000000   0.000000   0.000000
     2  C    0.000000   4.294984   0.000000   0.000000   0.000000   0.000000
     3  C    0.000000   0.000000   4.112311   0.000000   0.000000   0.000000
     4  C    0.000000   0.000000   0.000000   3.573559   0.000000   0.000000
     5  C    0.000000   0.000000   0.000000   0.000000   3.594489   0.000000
     6  C    0.000000   0.000000   0.000000   0.000000   0.000000   4.447029
     7  H    0.000000   0.000000   0.000000   0.000000   0.000000   0.000000
     8  H    0.000000   0.000000   0.000000   0.000000   0.000000   0.000000
     9  H    0.000000   0.000000   0.000000   0.000000   0.000000   0.000000
    10  H    0.000000   0.000000   0.000000   0.000000   0.000000   0.000000
    11  H    0.000000   0.000000   0.000000   0.000000   0.000000   0.000000
    12  H    0.000000   0.000000   0.000000   0.000000   0.000000   0.000000
    13  C    0.000000   0.000000   0.000000   0.000000   0.000000   0.000000
    14  H    0.000000   0.000000   0.000000   0.000000   0.000000   0.000000
    15  H    0.000000   0.000000   0.000000   0.000000   0.000000   0.000000
    16  H    0.000000   0.000000   0.000000   0.000000   0.000000   0.000000
    17  H    0.000000   0.000000   0.000000   0.000000   0.000000   0.000000
    18  H    0.000000   0.000000   0.000000   0.000000   0.000000   0.000000
    19  H    0.000000   0.000000   0.000000   0.000000   0.000000   0.000000
    20  O    0.000000   0.000000   0.000000   0.000000   0.000000   0.000000
    21  O    0.000000   0.000000   0.000000   0.000000   0.000000   0.000000
    22  O    0.000000   0.000000   0.000000   0.000000   0.000000   0.000000
               7          8          9         10         11         12
     1  C    0.000000   0.000000   0.000000   0.000000   0.000000   0.000000
     2  C    0.000000   0.000000   0.000000   0.000000   0.000000   0.000000
     3  C    0.000000   0.000000   0.000000   0.000000   0.000000   0.000000
     4  C    0.000000   0.000000   0.000000   0.000000   0.000000   0.000000
     5  C    0.000000   0.000000   0.000000   0.000000   0.000000   0.000000
     6  C    0.000000   0.000000   0.000000   0.000000   0.000000   0.000000
     7  H    0.850332   0.000000   0.000000   0.000000   0.000000   0.000000
     8  H    0.000000   0.849294   0.000000   0.000000   0.000000   0.000000
     9  H    0.000000   0.000000   0.837411   0.000000   0.000000   0.000000
    10  H    0.000000   0.000000   0.000000   0.849787   0.000000   0.000000
    11  H    0.000000   0.000000   0.000000   0.000000   0.808125   0.000000
    12  H    0.000000   0.000000   0.000000   0.000000   0.000000   0.742762
    13  C    0.000000   0.000000   0.000000   0.000000   0.000000   0.000000
    14  H    0.000000   0.000000   0.000000   0.000000   0.000000   0.000000
    15  H    0.000000   0.000000   0.000000   0.000000   0.000000   0.000000
    16  H    0.000000   0.000000   0.000000   0.000000   0.000000   0.000000
    17  H    0.000000   0.000000   0.000000   0.000000   0.000000   0.000000
    18  H    0.000000   0.000000   0.000000   0.000000   0.000000   0.000000
    19  H    0.000000   0.000000   0.000000   0.000000   0.000000   0.000000
    20  O    0.000000   0.000000   0.000000   0.000000   0.000000   0.000000
    21  O    0.000000   0.000000   0.000000   0.000000   0.000000   0.000000
    22  O    0.000000   0.000000   0.000000   0.000000   0.000000   0.000000
              13         14         15         16         17         18
     1  C    0.000000   0.000000   0.000000   0.000000   0.000000   0.000000
     2  C    0.000000   0.000000   0.000000   0.000000   0.000000   0.000000
     3  C    0.000000   0.000000   0.000000   0.000000   0.000000   0.000000
     4  C    0.000000   0.000000   0.000000   0.000000   0.000000   0.000000
     5  C    0.000000   0.000000   0.000000   0.000000   0.000000   0.000000
     6  C    0.000000   0.000000   0.000000   0.000000   0.000000   0.000000
     7  H    0.000000   0.000000   0.000000   0.000000   0.000000   0.000000
     8  H    0.000000   0.000000   0.000000   0.000000   0.000000   0.000000
     9  H    0.000000   0.000000   0.000000   0.000000   0.000000   0.000000
    10  H    0.000000   0.000000   0.000000   0.000000   0.000000   0.000000
    11  H    0.000000   0.000000   0.000000   0.000000   0.000000   0.000000
    12  H    0.000000   0.000000   0.000000   0.000000   0.000000   0.000000
    13  C    4.575763   0.000000   0.000000   0.000000   0.000000   0.000000
    14  H    0.000000   0.910467   0.000000   0.000000   0.000000   0.000000
    15  H    0.000000   0.000000   0.828082   0.000000   0.000000   0.000000
    16  H    0.000000   0.000000   0.000000   0.828935   0.000000   0.000000
    17  H    0.000000   0.000000   0.000000   0.000000   0.807908   0.000000
    18  H    0.000000   0.000000   0.000000   0.000000   0.000000   0.805373
    19  H    0.000000   0.000000   0.000000   0.000000   0.000000   0.000000
    20  O    0.000000   0.000000   0.000000   0.000000   0.000000   0.000000
    21  O    0.000000   0.000000   0.000000   0.000000   0.000000   0.000000
    22  O    0.000000   0.000000   0.000000   0.000000   0.000000   0.000000
              19         20         21         22
     1  C    0.000000   0.000000   0.000000   0.000000
     2  C    0.000000   0.000000   0.000000   0.000000
     3  C    0.000000   0.000000   0.000000   0.000000
     4  C    0.000000   0.000000   0.000000   0.000000
     5  C    0.000000   0.000000   0.000000   0.000000
     6  C    0.000000   0.000000   0.000000   0.000000
     7  H    0.000000   0.000000   0.000000   0.000000
     8  H    0.000000   0.000000   0.000000   0.000000
     9  H    0.000000   0.000000   0.000000   0.000000
    10  H    0.000000   0.000000   0.000000   0.000000
    11  H    0.000000   0.000000   0.000000   0.000000
    12  H    0.000000   0.000000   0.000000   0.000000
    13  C    0.000000   0.000000   0.000000   0.000000
    14  H    0.000000   0.000000   0.000000   0.000000
    15  H    0.000000   0.000000   0.000000   0.000000
    16  H    0.000000   0.000000   0.000000   0.000000
    17  H    0.000000   0.000000   0.000000   0.000000
    18  H    0.000000   0.000000   0.000000   0.000000
    19  H    0.817508   0.000000   0.000000   0.000000
    20  O    0.000000   6.452996   0.000000   0.000000
    21  O    0.000000   0.000000   6.553075   0.000000
    22  O    0.000000   0.000000   0.000000   6.251180
          Atomic-Atomic Spin Densities.
               1          2          3          4          5          6
     1  C   -0.002550   0.000000   0.000000   0.000000   0.000000   0.000000
     2  C    0.000000   0.029591   0.000000   0.000000   0.000000   0.000000
     3  C    0.000000   0.000000  -0.666382   0.000000   0.000000   0.000000
     4  C    0.000000   0.000000   0.000000   0.077629   0.000000   0.000000
     5  C    0.000000   0.000000   0.000000   0.000000  -0.000053   0.000000
     6  C    0.000000   0.000000   0.000000   0.000000   0.000000   0.000608
     7  H    0.000000   0.000000   0.000000   0.000000   0.000000   0.000000
     8  H    0.000000   0.000000   0.000000   0.000000   0.000000   0.000000
     9  H    0.000000   0.000000   0.000000   0.000000   0.000000   0.000000
    10  H    0.000000   0.000000   0.000000   0.000000   0.000000   0.000000
    11  H    0.000000   0.000000   0.000000   0.000000   0.000000   0.000000
    12  H    0.000000   0.000000   0.000000   0.000000   0.000000   0.000000
    13  C    0.000000   0.000000   0.000000   0.000000   0.000000   0.000000
    14  H    0.000000   0.000000   0.000000   0.000000   0.000000   0.000000
    15  H    0.000000   0.000000   0.000000   0.000000   0.000000   0.000000
    16  H    0.000000   0.000000   0.000000   0.000000   0.000000   0.000000
    17  H    0.000000   0.000000   0.000000   0.000000   0.000000   0.000000
    18  H    0.000000   0.000000   0.000000   0.000000   0.000000   0.000000
    19  H    0.000000   0.000000   0.000000   0.000000   0.000000   0.000000
    20  O    0.000000   0.000000   0.000000   0.000000   0.000000   0.000000
    21  O    0.000000   0.000000   0.000000   0.000000   0.000000   0.000000
    22  O    0.000000   0.000000   0.000000   0.000000   0.000000   0.000000
               7          8          9         10         11         12
     1  C    0.000000   0.000000   0.000000   0.000000   0.000000   0.000000
     2  C    0.000000   0.000000   0.000000   0.000000   0.000000   0.000000
     3  C    0.000000   0.000000   0.000000   0.000000   0.000000   0.000000
     4  C    0.000000   0.000000   0.000000   0.000000   0.000000   0.000000
     5  C    0.000000   0.000000   0.000000   0.000000   0.000000   0.000000
     6  C    0.000000   0.000000   0.000000   0.000000   0.000000   0.000000
     7  H    0.000157   0.000000   0.000000   0.000000   0.000000   0.000000
     8  H    0.000000   0.000185   0.000000   0.000000   0.000000   0.000000
     9  H    0.000000   0.000000  -0.019483   0.000000   0.000000   0.000000
    10  H    0.000000   0.000000   0.000000  -0.018128   0.000000   0.000000
    11  H    0.000000   0.000000   0.000000   0.000000   0.020052   0.000000
    12  H    0.000000   0.000000   0.000000   0.000000   0.000000  -0.033799
    13  C    0.000000   0.000000   0.000000   0.000000   0.000000   0.000000
    14  H    0.000000   0.000000   0.000000   0.000000   0.000000   0.000000
    15  H    0.000000   0.000000   0.000000   0.000000   0.000000   0.000000
    16  H    0.000000   0.000000   0.000000   0.000000   0.000000   0.000000
    17  H    0.000000   0.000000   0.000000   0.000000   0.000000   0.000000
    18  H    0.000000   0.000000   0.000000   0.000000   0.000000   0.000000
    19  H    0.000000   0.000000   0.000000   0.000000   0.000000   0.000000
    20  O    0.000000   0.000000   0.000000   0.000000   0.000000   0.000000
    21  O    0.000000   0.000000   0.000000   0.000000   0.000000   0.000000
    22  O    0.000000   0.000000   0.000000   0.000000   0.000000   0.000000
              13         14         15         16         17         18
     1  C    0.000000   0.000000   0.000000   0.000000   0.000000   0.000000
     2  C    0.000000   0.000000   0.000000   0.000000   0.000000   0.000000
     3  C    0.000000   0.000000   0.000000   0.000000   0.000000   0.000000
     4  C    0.000000   0.000000   0.000000   0.000000   0.000000   0.000000
     5  C    0.000000   0.000000   0.000000   0.000000   0.000000   0.000000
     6  C    0.000000   0.000000   0.000000   0.000000   0.000000   0.000000
     7  H    0.000000   0.000000   0.000000   0.000000   0.000000   0.000000
     8  H    0.000000   0.000000   0.000000   0.000000   0.000000   0.000000
     9  H    0.000000   0.000000   0.000000   0.000000   0.000000   0.000000
    10  H    0.000000   0.000000   0.000000   0.000000   0.000000   0.000000
    11  H    0.000000   0.000000   0.000000   0.000000   0.000000   0.000000
    12  H    0.000000   0.000000   0.000000   0.000000   0.000000   0.000000
    13  C    0.007807   0.000000   0.000000   0.000000   0.000000   0.000000
    14  H    0.000000   0.000009   0.000000   0.000000   0.000000   0.000000
    15  H    0.000000   0.000000  -0.000021   0.000000   0.000000   0.000000
    16  H    0.000000   0.000000   0.000000  -0.000018   0.000000   0.000000
    17  H    0.000000   0.000000   0.000000   0.000000   0.002406   0.000000
    18  H    0.000000   0.000000   0.000000   0.000000   0.000000   0.000088
    19  H    0.000000   0.000000   0.000000   0.000000   0.000000   0.000000
    20  O    0.000000   0.000000   0.000000   0.000000   0.000000   0.000000
    21  O    0.000000   0.000000   0.000000   0.000000   0.000000   0.000000
    22  O    0.000000   0.000000   0.000000   0.000000   0.000000   0.000000
              19         20         21         22
     1  C    0.000000   0.000000   0.000000   0.000000
     2  C    0.000000   0.000000   0.000000   0.000000
     3  C    0.000000   0.000000   0.000000   0.000000
     4  C    0.000000   0.000000   0.000000   0.000000
     5  C    0.000000   0.000000   0.000000   0.000000
     6  C    0.000000   0.000000   0.000000   0.000000
     7  H    0.000000   0.000000   0.000000   0.000000
     8  H    0.000000   0.000000   0.000000   0.000000
     9  H    0.000000   0.000000   0.000000   0.000000
    10  H    0.000000   0.000000   0.000000   0.000000
    11  H    0.000000   0.000000   0.000000   0.000000
    12  H    0.000000   0.000000   0.000000   0.000000
    13  C    0.000000   0.000000   0.000000   0.000000
    14  H    0.000000   0.000000   0.000000   0.000000
    15  H    0.000000   0.000000   0.000000   0.000000
    16  H    0.000000   0.000000   0.000000   0.000000
    17  H    0.000000   0.000000   0.000000   0.000000
    18  H    0.000000   0.000000   0.000000   0.000000
    19  H    0.000223   0.000000   0.000000   0.000000
    20  O    0.000000  -0.000008   0.000000   0.000000
    21  O    0.000000   0.000000   0.497837   0.000000
    22  O    0.000000   0.000000   0.000000   0.103853
 Mulliken charges and spin densities:
               1          2
     1  C   -0.208628  -0.002550
     2  C   -0.294984   0.029591
     3  C   -0.112311  -0.666382
     4  C    0.426441   0.077629
     5  C    0.405511  -0.000053
     6  C   -0.447029   0.000608
     7  H    0.149668   0.000157
     8  H    0.150706   0.000185
     9  H    0.162589  -0.019483
    10  H    0.150213  -0.018128
    11  H    0.191875   0.020052
    12  H    0.257238  -0.033799
    13  C   -0.575763   0.007807
    14  H    0.089533   0.000009
    15  H    0.171918  -0.000021
    16  H    0.171065  -0.000018
    17  H    0.192092   0.002406
    18  H    0.194627   0.000088
    19  H    0.182492   0.000223
    20  O   -0.452996  -0.000008
    21  O   -0.553075   0.497837
    22  O   -0.251180   0.103853
 Sum of Mulliken charges =   0.00000   0.00000
 Mulliken charges and spin densities with hydrogens summed into heavy atoms:
               1          2
     1  C    0.091745  -0.002208
     2  C    0.017819  -0.008020
     3  C    0.079564  -0.646330
     4  C    0.426441   0.077629
     5  C    0.495043  -0.000044
     6  C   -0.104046   0.000569
    13  C   -0.006553   0.010522
    20  O   -0.452996  -0.000008
    21  O   -0.295838   0.464038
    22  O   -0.251180   0.103853
 APT charges:
               1
     1  C   -0.130009
     2  C   -0.389189
     3  C   -0.194555
     4  C    0.593208
     5  C    0.899259
     6  C   -0.693892
     7  H    0.136842
     8  H    0.141816
     9  H    0.149513
    10  H    0.139516
    11  H    0.181521
    12  H    0.390363
    13  C   -0.799016
    14  H    0.005097
    15  H    0.189400
    16  H    0.187230
    17  H    0.211195
    18  H    0.237812
    19  H    0.225906
    20  O   -0.682417
    21  O   -0.550222
    22  O   -0.249271
 Sum of APT charges =   0.00011
 APT charges with hydrogens summed into heavy atoms:
               1
     1  C    0.148649
     2  C   -0.100161
     3  C   -0.013034
     4  C    0.593208
     5  C    0.904356
     6  C   -0.317262
    13  C   -0.124103
    20  O   -0.682417
    21  O   -0.159859
    22  O   -0.249271
 Charge=              0.0000 electrons
 Dipole moment (field-independent basis, Debye):
    X=             -3.8172    Y=             -3.7443    Z=             -0.3743  Tot=              5.3601
 N-N= 3.249140700955D+02 E-N=-5.775525261190D+02  KE=-3.425887669307D+01
  Exact polarizability:  76.705  10.095  53.160  -9.463   0.761  88.469
 Approx polarizability:  51.573   7.838  40.682  -2.317   0.975  50.321
 Leave Link  601 at Tue Feb 16 09:20:58 2021, MaxMem=    33554432 cpu:         0.0
 (Enter /cm/shared/apps/Gaussian09/g09/l701.exe)
 Compute integral second derivatives.
 ... and contract with generalized density number  0.
 Leave Link  701 at Tue Feb 16 09:20:58 2021, MaxMem=    33554432 cpu:         0.1
 (Enter /cm/shared/apps/Gaussian09/g09/l702.exe)
 L702 exits ... SP integral derivatives will be done elsewhere.
 Leave Link  702 at Tue Feb 16 09:20:58 2021, MaxMem=    33554432 cpu:         0.0
 (Enter /cm/shared/apps/Gaussian09/g09/l703.exe)
 Compute integral second derivatives, UseDBF=F ICtDFT=           0.
 Integral derivatives from FoFJK, PRISM(SPDF).
 Calling FoFJK, ICntrl=    100127 FMM=F ISym2X=0 I1Cent= 0 IOpClX= 1 NMat=1 NMatS=1 NMatT=0.
 FoFJK:  IHMeth=40 ICntrl=  100127 DoSepK=F KAlg= 0 I1Cent=   0 FoldK=F
 IRaf=         0 NMat=   1 IRICut=       1 DoRegI=T DoRafI=F ISym2E= 0.
 FoFCou: FMM=F IPFlag=           0 FMFlag=      100000 FMFlg1=         800
         NFxFlg=           0 DoJE=F BraDBF=F KetDBF=F FulRan=T
         wScrn=  0.000000 ICntrl=  100127 IOpCl=  1 I1Cent=           0 NGrid=           0
         NMat0=    1 NMatS0=      1 NMatT0=    0 NMatD0=    1 NMtDS0=    0 NMtDT0=    0
 Symmetry not used in FoFCou.
 Leave Link  703 at Tue Feb 16 09:20:58 2021, MaxMem=    33554432 cpu:         0.0
 (Enter /cm/shared/apps/Gaussian09/g09/l716.exe)
 Dipole        =-1.50179081D+00-1.47310203D+00-1.47244848D-01
 Polarizability= 7.67050350D+01 1.00954176D+01 5.31595723D+01
                -9.46263205D+00 7.61181602D-01 8.84689254D+01
 HyperPolar    =-2.19347187D+02 1.06109853D+01 1.15179539D+01
                -5.25867622D+01-9.41482285D+00-3.47593196D-01
                 1.77402868D+01 1.39757994D+02-7.30218046D+01
                -4.63205471D+02
 -------------------------------------------------------------------
 Center     Atomic                   Forces (Hartrees/Bohr)
 Number     Number              X              Y              Z
 -------------------------------------------------------------------
      1        6          -0.000082773    0.000081324   -0.000070431
      2        6           0.000687800   -0.000009666   -0.000633659
      3        6          -0.018172870    0.002438007    0.023064801
      4        6           0.021074464    0.002343773   -0.022422878
      5        6           0.000054315   -0.000029687   -0.000119148
      6        6          -0.000163477   -0.000090922    0.000061182
      7        1           0.000052325    0.000022517   -0.000097022
      8        1           0.000097423   -0.000034299   -0.000031997
      9        1           0.000340252    0.000157165    0.000097942
     10        1           0.000201027    0.000221964    0.000105969
     11        1          -0.000489134   -0.000218929   -0.000559062
     12        1          -0.003743893    0.005318077   -0.005833183
     13        6          -0.001534333    0.006676134   -0.000497118
     14        1           0.000009387    0.000012684    0.000013231
     15        1           0.000047702    0.000012428    0.000036489
     16        1           0.000030650    0.000033150    0.000009441
     17        1           0.000641945    0.000098110    0.000787627
     18        1          -0.000001955   -0.000280536   -0.000649168
     19        1          -0.000887407   -0.000638642   -0.000243388
     20        8          -0.000049822    0.000015649    0.000077622
     21        8           0.027189320   -0.016084190    0.023394783
     22        8          -0.025300945   -0.000044110   -0.016492032
 -------------------------------------------------------------------
 Cartesian Forces:  Max     0.027189320 RMS     0.008170652
 Leave Link  716 at Tue Feb 16 09:20:58 2021, MaxMem=    33554432 cpu:         0.0
 (Enter /cm/shared/apps/Gaussian09/g09/l103.exe)

 GradGradGradGradGradGradGradGradGradGradGradGradGradGradGradGradGradGrad
 Berny optimization.
 Search for a saddle point.
 Step number   1 out of a maximum of  100
 All quantities printed in internal units (Hartrees-Bohrs-Radians)
 Swapping is turned off.
 Second derivative matrix not updated -- analytic derivatives used.
 ITU=  0
     Eigenvalues ---   -0.02924  -0.01404  -0.00070   0.00002   0.00007
     Eigenvalues ---    0.00027   0.00066   0.00110   0.00149   0.00392
     Eigenvalues ---    0.00732   0.01130   0.01478   0.02014   0.02515
     Eigenvalues ---    0.03073   0.03414   0.03707   0.04034   0.04081
     Eigenvalues ---    0.05182   0.05460   0.05662   0.05900   0.05966
     Eigenvalues ---    0.06497   0.07012   0.07320   0.07868   0.08239
     Eigenvalues ---    0.10205   0.12136   0.12433   0.13896   0.14958
     Eigenvalues ---    0.15555   0.17895   0.18221   0.22999   0.23249
     Eigenvalues ---    0.24357   0.29881   0.37231   0.45120   0.47142
     Eigenvalues ---    0.48066   0.51494   0.52670   0.56269   0.56539
     Eigenvalues ---    0.59330   0.61255   0.64100   0.65204   0.69528
     Eigenvalues ---    0.70846   0.76792   0.94214   1.11014   1.67242
 Eigenvectors required to have negative eigenvalues:
                          Z12       Y12       Z22       X22       Z21
   1                    0.52499  -0.39731  -0.37914  -0.34527   0.30836
                          Y22       X3        Z4        X4        X2
   1                    0.21698   0.17379  -0.16119   0.14972   0.12469
 Eigenvalue     2 is  -1.40D-02 should be greater than     0.000000 Eigenvector:
                          Y21       Z21       Y22       Z12       X21
   1                    0.52518   0.36179  -0.30115  -0.29164   0.29135
                          Y12       X12       X3        Y4        X17
   1                   -0.26469   0.21713  -0.19131  -0.15173  -0.14231
 Eigenvalue     3 is  -7.05D-04 should be greater than     0.000000 Eigenvector:
                          Z12       X9        Y10       X20       X11
   1                    0.43684  -0.27321   0.25399   0.21713  -0.21508
                          X10       Z21       Y12       X2        Z19
   1                   -0.19741   0.18205   0.17409  -0.17250  -0.17163
 RFO step:  Lambda0=1.150446439D-02 Lambda=-4.41434279D-02.
 Linear search not attempted -- option 19 set.
 Maximum step size (   0.300) exceeded in Quadratic search.
    -- Step size scaled by   0.232
 TrRot=  0.000329 -0.000907  0.003412 -0.384101 -0.001215  0.384098
 Variable       Old X    -DE/DX   Delta X   Delta X   Delta X     New X
                                 (Linear)    (Quad)   (Total)
    X1       -0.40286  -0.00008   0.00000  -0.01011  -0.01281  -0.41567
    Y1        0.53905   0.00008   0.00000  -0.00351  -0.00320   0.53585
    Z1        2.67539  -0.00007   0.00000   0.00797   0.01067   2.68606
    X2       -0.37468   0.00069   0.00000  -0.03050  -0.03008  -0.40475
    Y2       -0.31528  -0.00001   0.00000  -0.00166  -0.00261  -0.31789
    Z2       -0.09327  -0.00063   0.00000   0.00796   0.01107  -0.08221
    X3        1.16283  -0.01817   0.00000  -0.08714  -0.08488   1.07795
    Y3        1.38009   0.00244   0.00000   0.02486   0.02317   1.40326
    Z3       -1.72542   0.02306   0.00000   0.01699   0.02097  -1.70445
    X4        1.22429   0.02107   0.00000   0.02575   0.03102   1.25531
    Y4        1.11939   0.00234   0.00000  -0.01763  -0.02054   1.09886
    Z4       -4.38618  -0.02242   0.00000  -0.00285   0.00147  -4.38471
    X5       -2.14459   0.00005   0.00000  -0.01044  -0.01804  -2.16263
    Y5       -0.35124  -0.00003   0.00000   0.00148   0.00378  -0.34746
    Z5        7.03310  -0.00012   0.00000   0.00345   0.00459   7.03769
    X6       -1.90511  -0.00016   0.00000  -0.00788  -0.01246  -1.91757
    Y6       -1.28808  -0.00009   0.00000  -0.00348  -0.00240  -1.29047
    Z6        4.34258   0.00006   0.00000   0.00634   0.00818   4.35076
    X7        1.55602   0.00005   0.00000  -0.00529  -0.00880   1.54722
    Y7        0.70640   0.00002   0.00000  -0.00787  -0.00723   0.69916
    Z7        3.40596  -0.00010   0.00000  -0.00091   0.00393   3.40990
    X8       -1.21431   0.00010   0.00000  -0.00165  -0.00452  -1.21883
    Y8        2.46714  -0.00003   0.00000  -0.00034   0.00006   2.46720
    Z8        2.84144  -0.00003   0.00000   0.00916   0.01008   2.85152
    X9        0.38929   0.00034   0.00000   0.01168   0.01226   0.40155
    Y9       -2.27343   0.00016   0.00000   0.01102   0.01001  -2.26342
    Z9       -0.23187   0.00010   0.00000   0.00036   0.00526  -0.22661
   X10       -2.33903   0.00020   0.00000  -0.02918  -0.02794  -2.36697
   Y10       -0.44238   0.00022   0.00000  -0.03517  -0.03644  -0.47883
   Z10       -0.82991   0.00011   0.00000   0.01704   0.01800  -0.81191
   X11        2.18350  -0.00049   0.00000   0.00594   0.00720   2.19070
   Y11        2.93974  -0.00022   0.00000  -0.02870  -0.02999   2.90975
   Z11       -0.82756  -0.00056   0.00000   0.00374   0.00830  -0.81927
   X12        6.61029  -0.00374   0.00000   0.11580   0.11948   6.72977
   Y12        0.51634   0.00532   0.00000   0.04317   0.04088   0.55722
   Z12       -2.79287  -0.00583   0.00000  -0.18765  -0.17691  -2.96978
   X13       -0.53205  -0.00153   0.00000  -0.01361  -0.00658  -0.53863
   Y13       -0.42340   0.00668   0.00000   0.01745   0.01384  -0.40955
   Z13       -5.94835  -0.00050   0.00000  -0.00003   0.00296  -5.94539
   X14       -3.01371   0.00001   0.00000  -0.01251  -0.02161  -3.03532
   Y14       -1.70812   0.00001   0.00000   0.00430   0.00722  -1.70090
   Z14        8.35519   0.00001   0.00000   0.00408   0.00485   8.36004
   X15       -3.82852   0.00005   0.00000  -0.00558  -0.00926  -3.83778
   Y15       -1.58170   0.00001   0.00000  -0.00477  -0.00404  -1.58575
   Z15        3.55723   0.00004   0.00000   0.00172   0.00153   3.55876
   X16       -1.00883   0.00003   0.00000  -0.00508  -0.00965  -1.01848
   Y16       -3.18313   0.00003   0.00000  -0.00216  -0.00108  -3.18421
   Z16        4.33534   0.00001   0.00000   0.00812   0.01184   4.34718
   X17       -0.50152   0.00064   0.00000  -0.01488  -0.00848  -0.51000
   Y17       -2.42499   0.00010   0.00000   0.01298   0.00962  -2.41537
   Z17       -5.39124   0.00079   0.00000  -0.00603  -0.00210  -5.39334
   X18        0.00278   0.00000   0.00000  -0.01972  -0.01042  -0.00764
   Y18       -0.35273  -0.00028   0.00000   0.01874   0.01421  -0.33852
   Z18       -7.95882  -0.00065   0.00000  -0.00217   0.00138  -7.95744
   X19       -2.48717  -0.00089   0.00000  -0.01037  -0.00352  -2.49068
   Y19        0.25325  -0.00064   0.00000   0.01713   0.01359   0.26685
   Z19       -5.79876  -0.00024   0.00000   0.01334   0.01382  -5.78494
   X20       -1.46195  -0.00005   0.00000  -0.01031  -0.01867  -1.48062
   Y20        1.71859   0.00002   0.00000   0.00282   0.00543   1.72402
   Z20        7.71904   0.00008   0.00000  -0.00082   0.00014   7.71918
   X21        4.77864   0.02719   0.00000   0.13402   0.13758   4.91622
   Y21        0.69331  -0.01608   0.00000   0.01154   0.00932   0.70263
   Z21       -2.90748   0.02339   0.00000   0.04011   0.04874  -2.85874
   X22        3.30669  -0.02530   0.00000  -0.02625  -0.01985   3.28685
   Y22        2.01116  -0.00004   0.00000  -0.04023  -0.04360   1.96756
   Z22       -5.37354  -0.01649   0.00000  -0.01498  -0.00877  -5.38230
         Item               Value     Threshold  Converged?
 Maximum Force            0.027189     0.000450     NO 
 RMS     Force            0.008171     0.000300     NO 
 Maximum Displacement     0.176907     0.001800     NO 
 RMS     Displacement     0.036692     0.001200     NO 
 Predicted change in Energy=-8.997681D-03
 Lowest energy point so far.  Saving SCF results.
 GradGradGradGradGradGradGradGradGradGradGradGradGradGradGradGradGradGrad

 Leave Link  103 at Tue Feb 16 09:20:58 2021, MaxMem=    33554432 cpu:         0.0
 (Enter /cm/shared/apps/Gaussian09/g09/l202.exe)
                          Input orientation:                          
 ---------------------------------------------------------------------
 Center     Atomic      Atomic             Coordinates (Angstroms)
 Number     Number       Type             X           Y           Z
 ---------------------------------------------------------------------
      1          6           0       -0.219962    0.283559    1.421400
      2          6           0       -0.214186   -0.168218   -0.043503
      3          6           0        0.570426    0.742575   -0.901956
      4          6           0        0.664282    0.581490   -2.320286
      5          6           0       -1.144414   -0.183867    3.724184
      6          6           0       -1.014734   -0.682890    2.302320
      7          1           0        0.818753    0.369980    1.804439
      8          1           0       -0.644979    1.305587    1.508961
      9          1           0        0.212493   -1.197751   -0.119915
     10          1           0       -1.252545   -0.253384   -0.429646
     11          1           0        1.159268    1.539771   -0.433537
     12          1           0        3.561242    0.294870   -1.571539
     13          6           0       -0.285030   -0.216727   -3.146166
     14          1           0       -1.606221   -0.900079    4.423945
     15          1           0       -2.030868   -0.839141    1.883217
     16          1           0       -0.538956   -1.685010    2.300428
     17          1           0       -0.269878   -1.278157   -2.854033
     18          1           0       -0.004045   -0.179139   -4.210897
     19          1           0       -1.318013    0.141211   -3.061258
     20          8           0       -0.783509    0.912314    4.084815
     21          8           0        2.601549    0.371814   -1.512781
     22          8           0        1.739325    1.041189   -2.848193
 ---------------------------------------------------------------------
                    Distance matrix (angstroms):
                    1          2          3          4          5
     1  C    0.000000
     2  C    1.532996   0.000000
     3  C    2.496677   1.477194   0.000000
     4  C    3.856277   2.552942   1.430531   0.000000
     5  C    2.525056   3.880854   5.019974   6.355531   0.000000
     6  C    1.530263   2.531531   3.848645   5.078016   1.512460
     7  H    1.110458   2.184378   2.743186   4.133033   2.801105
     8  H    1.110336   2.183535   2.758027   4.111157   2.715718
     9  H    2.181044   1.117065   2.122397   2.865562   4.200745
    10  H    2.186529   1.111103   2.130314   2.818823   4.155819
    11  H    2.630805   2.226147   1.096208   2.173278   5.056137
    12  H    4.822377   4.099171   3.097379   3.005853   7.100497
    13  C    4.595344   3.103851   2.586222   1.490108   6.923968
    14  H    3.512547   4.736187   5.983421   7.268761   1.102674
    15  H    2.180163   2.731798   4.126227   5.191480   2.145774
    16  H    2.179383   2.810720   4.168832   5.285434   2.155711
    17  H    4.552008   3.022275   2.932588   2.148448   6.725713
    18  H    5.655395   4.172704   3.482624   2.144674   8.016606
    19  H    4.617381   3.228162   2.930943   2.161569   6.795442
    20  O    2.794047   4.305193   5.170091   6.575019   1.209099
    21  O    4.071626   3.221611   2.153145   2.109273   6.462726
    22  O    4.758386   3.625625   2.289833   1.282859   7.280992
                    6          7          8          9         10
     6  C    0.000000
     7  H    2.172117   0.000000
     8  H    2.172597   1.762151   0.000000
     9  H    2.763765   2.555088   3.107282   0.000000
    10  H    2.775729   3.109662   2.560805   1.770339   0.000000
    11  H    4.141427   2.548117   2.661474   2.913550   3.005372
    12  H    6.074731   4.350186   5.310679   3.943254   4.977655
    13  C    5.516863   5.105983   4.910928   3.219958   2.883905
    14  H    2.213214   3.788846   3.779693   4.903365   4.909241
    15  H    1.110221   3.096533   2.580817   3.028830   2.509628
    16  H    1.109330   2.512441   3.095372   2.580729   3.164185
    17  H    5.243771   5.059925   5.084501   2.777507   2.809528
    18  H    6.610391   6.096130   5.944071   4.221444   3.982729
    19  H    5.434988   5.319127   4.763995   3.575859   2.661836
    20  O    2.403212   2.839275   2.609383   4.808759   4.686065
    21  O    5.361427   3.765942   4.532416   3.179811   4.051925
    22  O    6.089752   4.790090   4.973892   3.845461   4.059135
                   11         12         13         14         15
    11  H    0.000000
    12  H    2.935014   0.000000
    13  C    3.539724   4.187481   0.000000
    14  H    6.098846   8.004773   7.714862   0.000000
    15  H    4.604730   6.670308   5.360041   2.576691   0.000000
    16  H    4.556066   5.976928   5.646744   2.502897   1.765039
    17  H    3.980198   4.335514   1.101001   7.409299   5.073003
    18  H    4.310035   4.461185   1.101825   8.811766   6.456148
    19  H    3.872701   5.103921   1.096532   7.562778   5.090883
    20  O    4.958184   7.159081   7.335551   2.019067   3.077423
    21  O    2.146874   0.964563   3.368482   7.386999   5.870137
    22  O    2.532907   2.346533   2.401907   8.236819   6.335317
                   16         17         18         19         20
    16  H    0.000000
    17  H    5.177490   0.000000
    18  H    6.704561   1.766235   0.000000
    19  H    5.717490   1.776551   1.775052   0.000000
    20  O    3.160686   7.294491   8.403433   7.207403   0.000000
    21  O    5.351062   3.573018   3.791108   4.220655   6.563829
    22  O    6.255479   3.068598   2.526955   3.194163   7.378883
                   21         22
    21  O    0.000000
    22  O    1.724766   0.000000
 Symmetry turned off by external request.
 Stoichiometry    C7H12O3
 Framework group  C1[X(C7H12O3)]
 Deg. of freedom    60
 Full point group                 C1      NOp   1
 Rotational constants (GHZ):      3.1097203      0.4589567      0.4232822
 Leave Link  202 at Tue Feb 16 09:20:58 2021, MaxMem=    33554432 cpu:         0.0
 (Enter /cm/shared/apps/Gaussian09/g09/l301.exe)
 Standard basis: VSTO-6G (5D, 7F)
 Ernie: Thresh=  0.10000D-02 Tol=  0.10000D-05 Strict=F.
  NNHCO=     0 NNPyr=     0 NCTC=     0               EPep=         0.000000000
    EC=       250.204551546  ECS=         4.152866144   EG=         0.347585322
   EHC=         0.001248751  EAt=       -66.250074573  AtH=         3.187411664
 EPDDG=         0.000000000  ECC=       254.706251763 EAtT=        69.437486237
    52 basis functions,   312 primitive gaussians,    52 cartesian basis functions
    29 alpha electrons       29 beta electrons
       nuclear repulsion energy       324.1437379998 Hartrees.
 IExCor=    0 DFT=F Ex=HF Corr=None ExCW=0 ScaHFX=  1.000000
 ScaDFX=  1.000000  1.000000  1.000000  1.000000 ScalE2=  1.000000  1.000000
 IRadAn=      0 IRanWt=     -1 IRanGd=            0 ICorTp=0 IEmpDi=  4
 Integral buffers will be    131072 words long.
 Regular integral format.
 Two-electron integral symmetry is turned off.
 Leave Link  301 at Tue Feb 16 09:20:58 2021, MaxMem=    33554432 cpu:         0.0
 (Enter /cm/shared/apps/Gaussian09/g09/l302.exe)
 Do NDO integrals.
 NPDir=0 NMtPBC=     1 NCelOv=     1 NCel=       1 NClECP=     1 NCelD=      1
         NCelK=      1 NCelE2=     1 NClLst=     1 CellRange=     0.0.
 One-electron integrals computed using PRISM.
 NBasis=    52 RedAO= F EigKep=  0.00D+00  NBF=    52
 NBsUse=    52 1.00D-04 EigRej=  0.00D+00 NBFU=    52
 Leave Link  302 at Tue Feb 16 09:20:58 2021, MaxMem=    33554432 cpu:         0.1
 (Enter /cm/shared/apps/Gaussian09/g09/l303.exe)
 DipDrv:  MaxL=1.
 Leave Link  303 at Tue Feb 16 09:20:58 2021, MaxMem=    33554432 cpu:         0.0
 (Enter /cm/shared/apps/Gaussian09/g09/l401.exe)
 Initial guess from the checkpoint file:  "/local/Gau-96417.chk"
 B after Tr=     0.000611   -0.002019    0.006993
         Rot=    0.999999    0.000537    0.001137   -0.000156 Ang=   0.15 deg.
 Guess basis will be translated and rotated to current coordinates.
 JPrj=0 DoOrth=T DoCkMO=T.
 Initial guess <Sx>= 0.0000 <Sy>= 0.0000 <Sz>= 0.0000 <S**2>= 0.6710 S= 0.4597
 Leave Link  401 at Tue Feb 16 09:20:58 2021, MaxMem=    33554432 cpu:         0.1
 (Enter /cm/shared/apps/Gaussian09/g09/l508.exe)
 Direct SCF.
 Tight linear equation convergence will be used.
 UPM6 wavefunction.
 Quadratic Convergence SCF Method.
 Line search only if initial step raises energy.
 Two-electron integral symmetry not used.
 ReadGW:  IGet=1 IStart=       59293 Next=       59293 LGW=           0.
 Keep J ints in memory in canonical form, NReq=905730.
 FoFCou: FMM=F IPFlag=           0 FMFlag=           0 FMFlg1=           0
         NFxFlg=           0 DoJE=F BraDBF=F KetDBF=F FulRan=T
         wScrn=  0.000000 ICntrl=     600 IOpCl=  2 I1Cent=           0 NGrid=           0
         NMat0=    1 NMatS0=    112 NMatT0=    0 NMatD0=    1 NMtDS0=    0 NMtDT0=    0
 Symmetry not used in FoFCou.
 Iteration   1 EE=-0.547006618340333E-01                                Grad=5.530D-02 Max rot=    0.6544 deg.
 Gradient too large for Newton-Raphson -- use scaled steepest descent instead.
 Alpha Gap=     0.320 HL deriv= 1.76D-02
  Beta Gap=     0.323 HL deriv= 1.57D-02
     ILin= 1 X=0.000D+00 Y=-5.470066183403D-02 DE= 0.00D+00 F= -8.62D-03
     ILin= 2 X=3.000D-01 Y=-5.708023629410D-02 DE=-2.38D-03 F= -7.24D-03
     ILin= 3 X=6.000D-01 Y=-5.904493199506D-02 DE=-4.34D-03 F= -5.86D-03
     ILin= 4 X=1.200D+00 Y=-6.172203131649D-02 DE=-7.02D-03 F= -3.06D-03
     ILin= 5 X=2.400D+00 Y=-6.202201973304D-02 DE=-7.32D-03 F=  2.58D-03
     Accept linear search using points  4 and  5.
     An  expanding polynomial of degree  5 produced  1.8695
 Iteration   2 EE=-0.627243689075385E-01 Delta-E=       -0.008023707074 Grad=1.724D-02 Max rot=    0.2389 deg.
 Gradient too large for Newton-Raphson -- use scaled steepest descent instead.
 Alpha Gap=     0.326 HL deriv= 1.28D-02
  Beta Gap=     0.327 HL deriv= 8.06D-03
     ILin= 1 X=0.000D+00 Y=-6.272436890754D-02 DE= 0.00D+00 F= -8.80D-04
     ILin= 2 X=7.000D-01 Y=-6.323917884879D-02 DE=-5.15D-04 F= -5.91D-04
     ILin= 3 X=1.500D+00 Y=-6.357820240748D-02 DE=-8.54D-04 F= -2.56D-04
     Reject lnstep minimum 2.218D+00 FVal=-6.375004509138D-02 Lims=  7.00D-01  1.50D+00
     ILin= 4 X=3.000D+00 Y=-6.348516110859D-02 DE=-7.61D-04 F=  3.83D-04
     An  expanding polynomial of degree  4 produced  2.1057
 Iteration   3 EE=-0.636558993863900E-01 Delta-E=       -0.000931530479 Grad=1.154D-02 Max rot=    0.1843 deg.
 Gradient too large for Newton-Raphson -- use scaled steepest descent instead.
 Alpha Gap=     0.327 HL deriv= 5.12D-03
  Beta Gap=     0.330 HL deriv= 5.83D-03
     ILin= 1 X=0.000D+00 Y=-6.365589938639D-02 DE= 0.00D+00 F= -3.44D-04
     ILin= 2 X=2.000D+00 Y=-6.394962131537D-02 DE=-2.94D-04 F=  5.06D-05
     ILin= 3 X=4.000D+00 Y=-6.345029243738D-02 DE= 2.06D-04 F=  4.49D-04
     An  expanding polynomial of degree  3 produced  1.7407
 Iteration   4 EE=-0.639560850199246E-01 Delta-E=       -0.000300185634 Grad=6.223D-03 Max rot=    0.0953 deg.
 QCNR:  CnvC1=3.65D-09 CnvC2=3.65D-08
 LinEq1:  Iter=  0 NonCon=     1 RMS=3.01D-04 Max=5.05D-03 NDo=     1
 AX will form     1 AO Fock derivatives at one time.
 LinEq1:  Iter=  1 NonCon=     1 RMS=9.80D-05 Max=1.50D-03 NDo=     1
 LinEq1:  Iter=  2 NonCon=     1 RMS=1.00D-05 Max=1.37D-04 NDo=     1
 LinEq1:  Iter=  3 NonCon=     1 RMS=2.93D-06 Max=3.83D-05 NDo=     1
 LinEq1:  Iter=  4 NonCon=     1 RMS=4.12D-07 Max=6.68D-06 NDo=     1
 LinEq1:  Iter=  5 NonCon=     1 RMS=8.81D-08 Max=9.64D-07 NDo=     1
 LinEq1:  Iter=  6 NonCon=     1 RMS=1.20D-08 Max=1.44D-07 NDo=     1
 LinEq1:  Iter=  7 NonCon=     1 RMS=2.47D-09 Max=3.81D-08 NDo=     1
 LinEq1:  Iter=  8 NonCon=     0 RMS=4.66D-10 Max=5.12D-09 NDo=     1
 Linear equations converged to 3.652D-09 3.652D-08 after     8 iterations.
 Angle between quadratic step and gradient=  50.21 degrees.
     ILin= 1 X=0.000D+00 Y=-6.395608501992D-02 DE= 0.00D+00 F= -3.87D-04
     ILin= 2 X=1.000D+00 Y=-6.414431092799D-02 DE=-1.88D-04 F=  1.56D-05
     Accept linear search using points  1 and  2.
     An  expanding polynomial of degree  2 produced  0.9627
     Minimum is close to point  2 DX= -3.73D-02 DF= -2.91D-07 DXR=  3.88D-02 DFR=  1.55D-03 which will be used.
 Iteration   5 EE=-0.641443109279862E-01 Delta-E=       -0.000188225908 Grad=2.176D-04 Max rot=    0.0054 deg.
 QCNR:  CnvC1=2.18D-09 CnvC2=2.18D-08
 LinEq1:  Iter=  0 NonCon=     1 RMS=1.45D-05 Max=2.73D-04 NDo=     1
 LinEq1:  Iter=  1 NonCon=     1 RMS=1.67D-06 Max=2.66D-05 NDo=     1
 LinEq1:  Iter=  2 NonCon=     1 RMS=2.72D-07 Max=3.83D-06 NDo=     1
 LinEq1:  Iter=  3 NonCon=     1 RMS=5.86D-08 Max=8.15D-07 NDo=     1
 LinEq1:  Iter=  4 NonCon=     1 RMS=1.35D-08 Max=2.13D-07 NDo=     1
 LinEq1:  Iter=  5 NonCon=     1 RMS=2.61D-09 Max=2.39D-08 NDo=     1
 LinEq1:  Iter=  6 NonCon=     0 RMS=5.16D-10 Max=4.33D-09 NDo=     1
 Linear equations converged to 2.176D-09 2.176D-08 after     6 iterations.
 Angle between quadratic step and gradient=  25.95 degrees.
     ILin= 1 X=0.000D+00 Y=-6.414431092799D-02 DE= 0.00D+00 F= -8.18D-07
     ILin= 2 X=1.000D+00 Y=-6.414472049426D-02 DE=-4.10D-07 F= -1.93D-09
     Reject lnstep minimum 1.002D+00 FVal=-6.414472049654D-02 Lims=  0.00D+00  1.00D+00
     ILin= 3 X=2.000D+00 Y=-6.414431619919D-02 DE=-5.27D-09 F=  8.10D-07
     An  expanding polynomial of degree  3 produced  1.0032
     Minimum is close to point  2 DX=  3.24D-03 DF= -4.27D-12 DXR=  3.23D-03 DFR=  1.04D-05 which will be used.
 Iteration   6 EE=-0.641447204942551E-01 Delta-E=       -0.000000409566 Grad=2.682D-06 Max rot=    0.0000 deg.
 QCNR:  CnvC1=2.68D-11 CnvC2=2.68D-10
 LinEq1:  Iter=  0 NonCon=     1 RMS=1.12D-07 Max=1.51D-06 NDo=     1
 LinEq1:  Iter=  1 NonCon=     1 RMS=3.11D-08 Max=4.50D-07 NDo=     1
 LinEq1:  Iter=  2 NonCon=     1 RMS=6.39D-09 Max=8.72D-08 NDo=     1
 LinEq1:  Iter=  3 NonCon=     1 RMS=1.40D-09 Max=2.35D-08 NDo=     1
 LinEq1:  Iter=  4 NonCon=     1 RMS=2.63D-10 Max=3.69D-09 NDo=     1
 LinEq1:  Iter=  5 NonCon=     1 RMS=4.76D-11 Max=7.43D-10 NDo=     1
 LinEq1:  Iter=  6 NonCon=     0 RMS=9.09D-12 Max=1.32D-10 NDo=     1
 Linear equations converged to 2.682D-11 2.682D-10 after     6 iterations.
 Angle between quadratic step and gradient=  48.10 degrees.
     ILin= 1 X=0.000D+00 Y=-6.414472049426D-02 DE= 0.00D+00 F= -3.58D-11
     ILin= 2 X=1.000D+00 Y=-6.414472051256D-02 DE=-1.83D-11
 Iteration   7 EE=-0.641447205125587E-01 Delta-E=       -0.000000000018 Grad=1.792D-08 Max rot=    0.0000 deg.
 Rotation gradient small -- convergence achieved.
 SCF Done:  E(UPM6) = -0.641447205126E-01 a.u. after    7 cycles
            Convg  =    0.1792D-07                    37 Fock formations.
              S**2 =  0.8415                  -V/T =  0.9981
 <Sx>= 0.0000 <Sy>= 0.0000 <Sz>= 0.0000 <S**2>= 0.8415 S= 0.5448
 <L.S>= 0.000000000000E+00
 Annihilation of the first spin contaminant:
 S**2 before annihilation     0.8415,   after     0.0910
 Leave Link  508 at Tue Feb 16 09:20:58 2021, MaxMem=    33554432 cpu:         0.1
 (Enter /cm/shared/apps/Gaussian09/g09/l801.exe)
 Range of M.O.s used for correlation:     1    52
 NBasis=    52 NAE=    29 NBE=    29 NFC=     0 NFV=     0
 NROrb=     52 NOA=    29 NOB=    29 NVA=    23 NVB=    23
 Leave Link  801 at Tue Feb 16 09:20:58 2021, MaxMem=    33554432 cpu:         0.0
 (Enter /cm/shared/apps/Gaussian09/g09/l1101.exe)
 Using compressed storage, NAtomX=    22.
 Will process     23 centers per pass.
 Leave Link 1101 at Tue Feb 16 09:20:58 2021, MaxMem=    33554432 cpu:         0.1
 (Enter /cm/shared/apps/Gaussian09/g09/l1102.exe)
 Symmetrizing basis deriv contribution to polar:
 IMax=3 JMax=2 DiffMx= 0.00D+00
 Leave Link 1102 at Tue Feb 16 09:20:58 2021, MaxMem=    33554432 cpu:         0.0
 (Enter /cm/shared/apps/Gaussian09/g09/l1110.exe)
 Forming Gx(P) for the SCF density, NAtomX=    22.
 Integral derivatives from FoFJK, PRISM(SPDF).
 Do as many integral derivatives as possible in FoFJK.
 G2DrvN: MDV=      33495261.
 G2DrvN: will do    23 centers at a time, making    1 passes.
 Calling FoFCou, ICntrl=  3107 FMM=F I1Cent=   0 AccDes= 0.00D+00.
 FoFJK:  IHMeth=40 ICntrl=    3107 DoSepK=F KAlg= 0 I1Cent=   0 FoldK=F
 IRaf=         0 NMat=   1 IRICut=       1 DoRegI=T DoRafI=F ISym2E= 0.
 FoFCou: FMM=F IPFlag=           0 FMFlag=      100000 FMFlg1=           0
         NFxFlg=           0 DoJE=F BraDBF=F KetDBF=F FulRan=T
         wScrn=  0.000000 ICntrl=    3107 IOpCl=  1 I1Cent=           0 NGrid=           0
         NMat0=    1 NMatS0=      1 NMatT0=    0 NMatD0=    1 NMtDS0=    0 NMtDT0=    0
 Symmetry not used in FoFCou.
 End of G2Drv F.D. properties file   721 does not exist.
 End of G2Drv F.D. properties file   722 does not exist.
 End of G2Drv F.D. properties file   788 does not exist.
 Leave Link 1110 at Tue Feb 16 09:20:58 2021, MaxMem=    33554432 cpu:         0.0
 (Enter /cm/shared/apps/Gaussian09/g09/l1002.exe)
 Minotr:  UHF open shell wavefunction.
          IDoAtm=1111111111111111111111
          Direct CPHF calculation.
          Differentiating once with respect to electric field.
                with respect to dipole field.
          Differentiating once with respect to nuclear coordinates.
          Electric field/nuclear overlap derivatives assumed to be zero.
          Requested convergence is 1.0D-08 RMS, and 1.0D-07 maximum.
[...]
 0956,0.00002693,0.00000890,0.00000474,0.00003252,0.00000243,-0.0000369
 6,0.00002735,0.00001240,-0.00001886,0.00001612,0.00000747,0.00007699,0
 .00020490,-0.00001237,0.05867619,0.15287414,-0.00003194,0.00000692,-0.
 00002187,-0.00013255,-0.00015901,-0.00003427,-0.00023591,0.00012020,-0
 .00037039,0.00109508,0.00084856,0.00067077,0.00003229,-0.00000283,-0.0
 0006604,-0.00006987,-0.00003166,0.00004025,0.00004534,0.00001511,-0.00
 001662,0.00003121,-0.00000444,-0.00001130,0.00002437,0.00002668,0.0000
 3392,0.00003569,0.00000826,0.00003028,0.00030119,0.00007931,-0.0000568
 8,-0.04106621,-0.10399353,0.07233209,0.00037508,0.00010954,0.00004470,
 0.00201497,0.00079938,0.00066131,0.00606170,-0.00905232,-0.00860633,-0
 .11208574,-0.04480784,-0.04344212,-0.00016307,-0.00013665,-0.00019886,
 0.00038965,0.00012691,0.00016477,-0.00015267,-0.00002064,0.00011935,-0
 .00014649,-0.00000023,0.00003654,-0.00069983,-0.00003696,-0.00044977,-
 0.00066047,-0.00010758,-0.00068121,0.00004016,0.00033858,0.00039288,0.
 00114488,0.00007553,0.00006267,0.42581235,0.00008367,0.00030732,0.0000
 2029,0.00060150,0.00208644,-0.00029395,-0.01044609,0.00039912,-0.01500
 482,-0.04312063,-0.12796684,-0.05158892,-0.00008446,-0.00020457,-0.000
 03685,0.00015823,0.00044111,-0.00001116,0.00001667,-0.00014456,0.00008
 582,-0.00006907,-0.00010150,0.00014334,0.00007360,-0.00090339,-0.00070
 313,0.00000862,-0.00078318,-0.00030592,0.00054757,0.00011611,-0.000108
 90,0.00080190,-0.00033001,-0.00024093,0.03837669,0.42632135,-0.0002151
 9,-0.00024294,0.00001940,0.00010764,-0.00089229,-0.00391807,-0.0154560
 7,-0.02220606,-0.02668379,-0.04207420,-0.05074436,-0.11291125,0.000058
 49,0.00039200,0.00101748,0.00030495,0.00007470,-0.00083112,0.00018688,
 -0.00006718,0.00010485,-0.00011017,0.00023575,0.00004023,0.00003207,-0
 .00026067,0.00018201,-0.00034930,0.00017633,-0.00015318,0.00106997,0.0
 0073221,-0.00261712,0.00019137,-0.00013084,-0.00060346,0.00891266,0.01
 557313,0.42627548,0.00037280,-0.00013304,-0.00003152,-0.00000155,0.000
 04906,-0.00004013,-0.00001590,-0.00000143,-0.00005865,-0.00001561,-0.0
 0001967,0.00009372,-0.09892335,-0.04077163,0.05234002,0.00723374,-0.00
 729309,0.00938615,0.00001699,0.00001927,0.00003071,0.00005599,-0.00012
 391,-0.00008505,0.00000893,0.00000888,0.00001916,0.00001612,-0.0000082
 7,0.00000625,-0.00000423,-0.00001397,0.00000334,-0.00000726,-0.0000041
 3,0.00000665,-0.00001332,-0.00000572,-0.00004512,0.10294386,-0.0001364
 4,0.00015983,-0.00054485,0.00018714,0.00011575,-0.00015016,0.00000673,
 -0.00003357,-0.00010659,-0.00006152,-0.00003070,0.00017389,-0.03987351
 ,-0.08894605,0.05558571,-0.00533371,0.00809808,-0.00091148,-0.00013705
 ,-0.00005571,-0.00012457,-0.00005465,-0.00007563,-0.00005260,-0.000028
 24,0.00003178,0.00002773,0.00001570,-0.00000728,0.00004397,-0.00002708
 ,-0.00001841,-0.00001453,-0.00001937,-0.00000382,0.00000489,0.00000918
 ,-0.00001627,-0.00008218,0.08498548,0.11010147,-0.00034850,-0.00104645
 ,-0.00220451,0.00048518,0.00043491,-0.00045012,-0.00001400,-0.00004392
 ,-0.00020761,-0.00008238,-0.00006458,0.00026878,0.05536074,0.05933092,
 -0.09135345,0.01708247,0.00866988,-0.02952318,-0.00022246,-0.00017362,
 -0.00008577,-0.00014225,-0.00031009,-0.00010358,-0.00005876,0.00006698
 ,0.00006231,0.00005874,-0.00005468,0.00007472,-0.00003411,-0.00004298,
 -0.00003627,-0.00002792,-0.00000788,0.00000406,0.00001316,0.00000188,-
 0.00012439,-0.06871707,-0.05950181,0.11484929,-0.03111977,-0.00855053,
 0.00219144,-0.00069426,0.00015591,0.00074245,-0.00002257,-0.00004619,-
 0.00037822,0.00002805,0.00002640,0.00044275,-0.00491257,-0.00474941,-0
 .01770114,-0.18240492,0.01600330,-0.06022610,-0.00142741,-0.00123830,0
 .00099224,0.00003467,-0.00051331,-0.00016921,-0.00007724,0.00005449,0.
 00017822,0.00014942,-0.00014591,0.00051639,-0.00001012,-0.00003587,-0.
 00000363,-0.00002207,-0.00000433,0.00002108,-0.00013829,-0.00004689,-0
 .00017997,0.00015564,0.00026624,0.00042129,0.22994258,-0.01668358,0.00
 087613,-0.00070443,-0.00000351,-0.00018116,-0.00009429,0.00002557,-0.0
 0011875,-0.00005441,-0.00002628,0.00010178,0.00009920,-0.00531600,0.00
 478563,-0.00573364,0.01605121,-0.03295497,0.00826171,-0.00127198,-0.00
 081486,0.00094811,-0.00089150,-0.00013599,-0.00003394,0.00007551,0.000
 14977,-0.00011336,-0.00006829,0.00024333,0.00022026,-0.00003921,0.0000
 4583,0.00000221,-0.00000715,0.00001083,0.00000386,-0.00000991,-0.00013
 787,-0.00002287,0.00042795,-0.00011700,0.00002154,-0.01303570,0.037210
 42,0.01099391,0.00087786,0.00536897,0.00054302,-0.00001089,-0.00057508
 ,-0.00001539,0.00002045,-0.00012772,0.00016616,0.00012164,-0.00009261,
 -0.02735053,-0.00074231,-0.02552808,-0.06343388,0.00842324,-0.05849061
 ,0.00097915,0.00105161,-0.00079181,0.00009069,-0.00015773,0.00033826,0
 .00029145,-0.00002877,-0.00007596,0.00024915,0.00023655,-0.00065427,0.
 00003445,-0.00000212,0.00008548,0.00002699,0.00000564,0.00000250,-0.00
 016753,-0.00005755,0.00008774,0.00139969,-0.00066246,-0.00059132,0.076
 02781,-0.00909713,0.07915649,0.00226057,-0.01734232,0.00289742,-0.0002
 0283,-0.00007695,-0.00006759,-0.00012477,0.00001820,-0.00001307,0.0000
 6677,-0.00002917,0.00009342,0.00391478,0.00326477,0.00225353,-0.042307
 81,0.04147625,0.00565649,0.00000294,-0.00096069,0.00009742,-0.00118338
 ,-0.00123760,0.00113191,0.00015688,-0.00004780,0.00033573,0.00013365,0
 .00000534,-0.00007821,0.00004894,-0.00004505,0.00000949,0.00000512,-0.
 00001155,0.00001486,-0.00010976,0.00001100,-0.00004706,0.00002476,0.00
 011708,0.00017421,-0.01051973,0.02037821,-0.00174812,0.04835512,-0.007
 23949,-0.02829295,0.00882312,0.00005411,-0.00038370,0.00057699,0.00002
 783,-0.00009186,-0.00035843,-0.00002296,0.00010079,0.00039637,0.003006
 50,-0.01762367,-0.01962559,0.04069414,-0.19861417,-0.01413887,-0.00051
 777,-0.00005647,-0.00019347,-0.00116652,-0.00113914,0.00088957,-0.0001
 4391,0.00026874,0.00029081,0.00002478,0.00001747,0.00011640,-0.0000415
 0,0.00000785,0.00001009,-0.00002780,0.00001364,0.00001495,-0.00002534,
 -0.00018500,-0.00013594,-0.00008517,0.00062231,0.00017215,0.00941621,-
 0.00760620,0.00195393,-0.04512052,0.25107723,0.00140190,0.01526379,0.0
 0102494,0.00003432,0.00031694,-0.00072775,0.00002442,-0.00001465,-0.00
 003136,0.00011694,0.00014013,-0.00016741,0.00841705,-0.02942038,-0.012
 21726,0.00598570,-0.01605688,-0.03384368,-0.00015134,-0.00004118,0.000
 40944,0.00123292,0.00085049,-0.00073988,0.00037873,0.00010006,-0.00065
 773,0.00001094,0.00023745,-0.00015503,0.00000508,0.00004253,0.00007626
 ,0.00002939,0.00001068,-0.00000161,-0.00007637,-0.00011050,0.00011895,
 -0.00062288,0.00076260,-0.00105760,-0.00432583,0.00709447,0.00381181,-
 0.01026333,0.02057917,0.04778248,-0.00008060,-0.00000214,-0.00001189,-
 0.00033851,-0.00008785,-0.00007027,-0.00084633,0.00046044,-0.00027522,
 0.00633098,-0.01469962,0.00012743,0.00003207,0.00002478,0.00007943,-0.
 00008425,-0.00001574,-0.00008799,0.00005048,-0.00001555,-0.00001784,0.
 00002037,0.00000397,-0.00000004,0.00031558,-0.00004298,0.00017667,0.00
 006335,0.00011927,0.00023406,0.00010885,-0.00011114,-0.00001582,-0.000
 09632,-0.00012527,-0.00001230,-0.04197502,0.03963264,-0.01186768,0.000
 00275,-0.00000478,-0.00000938,0.00002318,0.00000469,0.00004478,0.00003
 571,-0.00000556,0.00002560,0.04535271,0.00002535,-0.00006364,0.0000119
 5,-0.00005784,-0.00051694,0.00001125,0.00001438,0.00092079,0.00020041,
 -0.00742488,-0.03659533,-0.00406510,0.00001278,0.00003046,-0.00006796,
 -0.00003731,-0.00013489,0.00007941,-0.00003108,0.00004751,-0.00002075,
 0.00002039,-0.00000670,-0.00002876,-0.00002596,0.00037673,-0.00012716,
 0.00009003,0.00008687,-0.00011343,-0.00017999,-0.00010336,0.00008644,-
 0.00023974,0.00003814,0.00001164,0.04203765,-0.19486532,0.04617891,0.0
 0000372,0.00001136,0.00001225,0.00001695,0.00004441,-0.00000385,-0.000
 00941,0.00007717,0.00002250,-0.04475532,0.24198421,0.00007143,0.000123
 01,-0.00002366,0.00011672,0.00033960,-0.00012691,-0.00103373,0.0000532
 7,-0.00138207,0.00191727,-0.01194830,0.00761514,-0.00003157,-0.0001248
 8,-0.00024432,-0.00003301,0.00006926,0.00018745,-0.00003944,-0.0000249
 1,-0.00000491,-0.00000220,-0.00006197,0.00002248,0.00007605,-0.0000409
 6,-0.00083234,0.00017713,-0.00026441,-0.00020306,0.00006926,-0.0001387
 5,-0.00001623,0.00004778,0.00003667,0.00007312,-0.01192637,0.04604696,
 -0.04714971,0.00000940,0.00001698,0.00002806,0.00003270,-0.00001628,-0
 .00003516,0.00001819,-0.00000446,-0.00005678,0.01615319,-0.05278392,0.
 05049642,-0.00003239,0.00001763,-0.00000024,-0.00014825,-0.00001607,0.
 00012853,-0.00086024,-0.00157490,-0.00080613,0.00486036,-0.00291168,-0
 .01862153,0.00002366,0.00001575,0.00004305,-0.00003611,0.00000961,-0.0
 0004140,0.00001944,-0.00000713,0.00000148,0.00001162,-0.00000453,0.000
 00938,0.00006070,-0.00002032,0.00000572,0.00005367,-0.00001205,0.00006
 557,0.00008461,0.00000633,-0.00031709,-0.00016028,-0.00014265,-0.00013
 567,-0.04156100,-0.00251014,0.02963328,0.00000092,-0.00000312,-0.00000
 268,0.00001577,-0.00000419,0.00001764,0.00001651,-0.00000600,0.0000063
 3,0.00469384,0.00133143,-0.00411347,0.04218218,0.00001845,-0.00002398,
 0.00001046,-0.00005839,-0.00014576,0.00017967,-0.00151185,-0.00130932,
 -0.00094164,-0.00227629,0.00046019,-0.02414039,0.00000218,0.00002775,0
 .00001026,0.00000941,-0.00004449,-0.00000712,-0.00000894,0.00001164,0.
 00000167,-0.00000674,0.00001712,-0.00000691,-0.00002388,0.00007058,0.0
 0003823,-0.00001045,0.00006633,-0.00001930,0.00003854,0.00003249,-0.00
 037919,-0.00006246,0.00006773,-0.00005848,-0.00263201,-0.03718303,0.01
 504632,-0.00000052,0.00000174,-0.00000136,-0.00000249,0.00001856,-0.00
 000084,-0.00000488,0.00002014,0.00000843,-0.00176568,-0.00539932,0.020
 94921,0.00673698,0.03971290,0.00001646,0.00002645,0.00000546,-0.000085
 82,-0.00003705,0.00019660,-0.00015668,-0.00022662,0.00016400,-0.010808
 81,-0.01537924,-0.02801438,-0.00001440,-0.00007989,-0.00020098,-0.0000
 5096,-0.00000715,0.00017195,-0.00002253,0.00000297,-0.00002836,0.00001
 218,-0.00003241,-0.00002169,0.00000239,0.00003528,-0.00009274,0.000056
 91,-0.00002082,-0.00007445,-0.00007212,-0.00010513,-0.00015090,-0.0002
 2193,0.00001528,0.00019711,0.02849064,0.01307415,-0.21138343,0.0000084
 3,0.00001527,0.00002161,0.00002685,0.00000241,-0.00002377,0.00000761,0
 .00001836,-0.00002705,0.00050437,0.00941698,-0.01197141,-0.02923242,-0
 .00886963,0.26110480,-0.00009305,0.00001955,-0.00000316,-0.00050910,-0
 .00010300,-0.00016402,0.00080936,0.00034067,0.00035019,-0.03114456,-0.
 01170252,-0.00634659,0.00005143,0.00001429,-0.00000764,-0.00015362,-0.
 00002339,0.00000645,0.00001171,0.00001263,-0.00003173,0.00005641,-0.00
 002529,0.00000062,0.00014281,0.00005312,-0.00010719,0.00036752,-0.0000
 2123,-0.00004303,-0.00008931,-0.00017386,0.00013717,-0.00017079,-0.000
 04362,0.00004089,-0.21099583,0.02585737,0.02881603,0.00000700,0.000002
 84,0.00000870,0.00007198,-0.00000110,0.00005467,0.00004337,0.00001027,
 0.00000902,-0.01055302,0.00940414,0.00045280,-0.00835931,0.00128047,0.
 00939294,0.25920660,0.00002348,-0.00006600,-0.00000375,-0.00003926,-0.
 00037689,-0.00008404,0.00060897,-0.00081929,-0.00008422,-0.02044900,0.
 00247531,-0.00191770,0.00001379,0.00006222,0.00003673,-0.00000892,-0.0
 0010848,-0.00003287,-0.00000814,0.00002260,-0.00000423,-0.00001089,0.0
 0003623,-0.00003223,0.00004428,0.00016409,0.00021452,-0.00000879,0.000
 35962,-0.00008548,-0.00013650,0.00009778,0.00000351,0.00001071,0.00001
 263,0.00001075,0.02456451,-0.03502689,-0.00471999,-0.00000069,0.000001
 88,-0.00000489,-0.00000234,0.00004503,0.00001181,-0.00000175,0.0000378
 9,0.00003129,0.02187339,-0.00689072,-0.00151802,-0.00111558,0.00430961
 ,0.00011741,-0.02485265,0.03908486,0.00013070,0.00009017,-0.00003002,0
 .00013103,0.00021180,-0.00040817,0.00021512,-0.00100814,-0.00116144,-0
 .01418631,-0.00009097,0.00581394,-0.00004299,-0.00012708,-0.00027195,0
 .00000986,0.00002851,0.00022042,-0.00006464,-0.00000221,0.00001162,-0.
 00001410,-0.00005869,0.00000465,-0.00023950,0.00012891,-0.00042459,0.0
 0030333,-0.00022983,-0.00076376,-0.00011274,0.00004092,0.00000402,0.00
 002338,-0.00001842,0.00006008,0.02895072,-0.00461178,-0.03913283,0.000
 00884,0.00002040,0.00003129,0.00001938,0.00000058,-0.00006231,-0.00000
 484,0.00002103,-0.00004851,-0.00494545,0.00221673,0.00462128,0.0219713
 7,-0.00297775,-0.00859172,-0.03169667,0.00825156,0.04089858,0.00006940
 ,-0.00017857,0.00186382,0.00065543,0.00055944,0.00000222,0.00008846,0.
 00001067,-0.00000822,-0.00024790,-0.00020497,0.00003019,-0.25206678,-0
 .28546860,-0.13149227,0.00996375,-0.01699760,-0.02122612,-0.00041293,-
 0.00048117,-0.00118272,-0.00058264,-0.00009254,-0.00057031,-0.00016912
 ,-0.00005207,0.00013102,-0.00009774,-0.00008289,0.00017991,-0.00013285
 ,-0.00008667,-0.00017648,-0.00004822,-0.00002574,-0.00003524,0.0001636
 6,0.00010319,-0.00004991,-0.01189555,-0.04000544,-0.00408308,0.0008204
 8,0.00036329,0.00192093,-0.00059292,0.00104237,-0.00210732,-0.00002906
 ,-0.00002096,0.00003580,-0.00002115,-0.00000307,0.00001285,-0.00004959
 ,-0.00001520,0.00004335,0.25431040,-0.00082572,0.00038424,0.00189303,0
 .00056081,0.00082863,-0.00019702,-0.00003847,0.00004728,-0.00016645,-0
 .00033780,-0.00043577,0.00045763,-0.28837077,-0.47456951,-0.19319389,-
 0.01721180,-0.01415752,-0.04302411,-0.00012388,-0.00063689,-0.00042790
 ,-0.00005571,-0.00109113,-0.00133750,-0.00019003,-0.00003929,0.0002486
 2,-0.00002710,-0.00024154,0.00020394,-0.00010414,-0.00020139,-0.000173
 55,-0.00007376,-0.00006366,0.00000021,0.00012316,0.00018261,-0.0002738
 3,-0.03706812,-0.02990052,-0.00756302,0.00235186,-0.00142282,-0.001855
 74,-0.00041928,0.00173812,0.00029194,-0.00001724,-0.00003041,0.0000956
 2,-0.00001136,-0.00002231,0.00005564,-0.00001944,-0.00004969,0.0000983
 0,0.34141705,0.51920020,0.00004335,-0.00076148,-0.00079376,0.00005685,
 -0.00005339,-0.00041594,-0.00008770,-0.00018338,-0.00037280,-0.0004957
 9,-0.00033384,0.00125206,-0.14179533,-0.20615893,-0.15145625,-0.021611
 77,-0.04341976,-0.03868535,-0.00059766,0.00004264,-0.00000561,-0.00010
 533,-0.00019937,0.00023067,-0.00017670,0.00012971,0.00008656,0.0001070
 5,-0.00014186,0.00015612,-0.00012748,-0.00008710,-0.00001325,-0.000140
 81,-0.00003523,0.00005002,0.00006583,-0.00004363,-0.00060421,0.0063410
 5,0.00558845,0.01053845,0.00160147,-0.00074391,-0.00184991,-0.00040817
 ,0.00079185,-0.00358004,-0.00003514,0.00005776,0.00013424,-0.00002087,
 0.00000101,0.00011617,0.00002328,-0.00000777,0.00015107,0.15668312,0.2
 4509087,0.18570517,-0.00001830,0.00005333,-0.00001478,-0.00034363,-0.0
 0000075,0.00001867,-0.00143330,0.00057576,0.00029666,-0.00529786,-0.00
 983858,0.00745164,-0.00001359,-0.00006956,-0.00014399,-0.00005460,0.00
 001354,0.00011433,0.00001564,-0.00001490,-0.00004499,0.00001526,-0.000
 03569,-0.00001015,0.00012804,0.00000550,-0.00003261,0.00003082,-0.0000
 5619,0.00005358,0.00041488,-0.00029771,-0.00019493,-0.02176662,-0.0599
 7757,0.04071911,-0.00140988,0.00116134,-0.00031607,0.00000555,0.000009
 30,0.00001542,0.00001898,-0.00000721,-0.00000891,0.00001357,0.00000432
 ,-0.00002078,0.00046967,0.00003281,0.00006671,0.00026710,-0.00021152,0
 .00004609,0.00003060,-0.00013739,0.00003380,0.00001582,0.00005014,0.00
 007914,0.03290003,0.00002930,0.00005941,0.00000014,0.00013302,0.000055
 16,0.00000264,0.00046861,0.00069199,0.00145725,0.00323002,0.00465638,-
 0.00632969,-0.00002948,-0.00008426,-0.00011538,-0.00000867,0.00005568,
 0.00008648,-0.00002347,-0.00003919,-0.00001104,-0.00001731,-0.00003683
 ,-0.00000769,0.00004474,-0.00004300,-0.00003196,0.00004304,0.00000833,
 -0.00003671,-0.00048609,-0.00022846,0.00006101,-0.05971424,-0.15080918
 ,0.10290667,0.00017146,-0.00023481,0.00017786,0.00000330,0.00000666,0.
 00001463,0.00000598,-0.00001047,-0.00001288,0.00001205,-0.00001646,-0.
 00001907,0.00006557,-0.00010998,-0.00004714,0.00006812,-0.00001902,0.0
 0005615,0.00010339,0.00006027,0.00003651,0.00003706,0.00006764,0.00005
 136,0.05293615,0.15336630,0.00005178,-0.00003867,0.00003451,0.00015923
 ,0.00019350,0.00009761,0.00075941,-0.00024482,-0.00060033,-0.00148080,
 -0.00264198,0.00107380,-0.00004350,0.00001951,0.00011591,0.00010874,0.
 00003382,-0.00006463,-0.00007883,-0.00000554,0.00003513,-0.00004155,0.
 00002017,0.00001649,-0.00007042,-0.00003460,-0.00005765,-0.00005462,-0
 .00002114,-0.00004100,-0.00043305,0.00003285,0.00008034,0.04056155,0.1
 0301444,-0.07149035,-0.00047024,0.00034935,0.00082363,-0.00000987,-0.0
 0000800,-0.00000886,-0.00003078,-0.00000329,-0.00000455,-0.00002714,-0
 .00001963,0.00000366,0.00011788,-0.00001632,-0.00016542,0.00026977,-0.
 00000798,-0.00018525,-0.00002223,-0.00002962,-0.00007452,0.00004322,-0
 .00001421,-0.00007925,-0.03771770,-0.10422842,0.07191724,0.00007000,0.
 00002088,0.00014153,0.00159077,0.00079435,0.00080324,-0.00414218,-0.01
 404266,0.05278536,-0.28976155,-0.22357534,0.16693183,-0.00019287,-0.00
 040852,-0.00097290,-0.00008579,-0.00007031,0.00091566,-0.00033698,0.00
 004634,-0.00015560,0.00001296,-0.00018004,-0.00013255,-0.00001533,0.00
 052078,-0.00038071,0.00045038,0.00024699,-0.00025958,-0.00227067,-0.00
 121073,-0.00043848,-0.00635381,0.00218501,-0.00072015,-0.02584995,-0.0
 5121646,0.00137135,0.00002589,0.00007785,0.00012209,0.00008000,0.00003
 740,-0.00011882,-0.00003362,0.00011176,-0.00011101,-0.00350747,-0.0002
 1557,-0.00206680,-0.00111773,0.00049423,0.00209680,0.00131247,-0.00033
 451,-0.00051245,0.00017913,0.00027787,0.00053774,-0.00400730,0.0029017
 1,-0.00157850,0.33393062,0.00003934,0.00009684,0.00014396,0.00110072,0
 .00181078,0.00015264,-0.01710061,0.00481734,0.04001497,-0.23461528,-0.
 28006312,0.17343845,-0.00010168,-0.00037005,-0.00066136,-0.00012620,0.
 00012233,0.00060092,-0.00012102,-0.00003643,-0.00008610,0.00002992,-0.
 00027179,-0.00003418,0.00019197,0.00022829,-0.00032887,0.00036003,-0.0
 0006732,-0.00033883,-0.00060045,-0.00211243,-0.00006766,0.00195075,-0.
 00187811,0.00044609,-0.04997283,-0.03175039,0.00114761,0.00002430,0.00
 004502,0.00008849,0.00006986,-0.00003161,-0.00007350,0.00002549,0.0000
 2260,-0.00009178,-0.00050976,0.00109290,-0.00073373,0.00015236,-0.0006
 7799,0.00192595,-0.00013130,-0.00344093,-0.00201099,0.00009510,0.00028
 077,0.00034397,0.01575246,-0.00738642,0.00363789,0.28348026,0.31953399
 ,0.00052281,0.00042748,-0.00024672,0.00051652,-0.00035316,-0.00432899,
 0.03707986,0.02714880,-0.06315451,0.19262995,0.18599811,-0.19653213,0.
 00008392,0.00040277,0.00100591,0.00040913,0.00016145,-0.00110372,0.000
 18585,-0.00006232,0.00025453,-0.00012776,0.00024388,0.00019336,-0.0001
 1642,-0.00080193,-0.00011496,-0.00073678,-0.00016817,-0.00024958,0.000
 84058,0.00106282,0.00117750,-0.00057424,0.00027408,-0.00082635,-0.0018
 7746,-0.00217389,0.01744906,-0.00004485,-0.00008523,-0.00013468,-0.000
 19733,-0.00003839,0.00005224,-0.00003379,-0.00017609,0.00008349,-0.000
 12022,-0.00107666,-0.00097400,0.00114231,0.00117081,-0.00120390,-0.000
 86399,-0.00015643,-0.00085092,-0.00004110,-0.00024753,-0.00059034,-0.0
 1039279,0.00598474,-0.00142308,-0.21827036,-0.21753586,0.25152919\\0.0
 0000008,0.00000005,-0.00000007,0.00000005,-0.00000006,0.00000002,-0.00
 000011,0.00000020,-0.00000011,-0.00000013,-0.00000024,0.00000037,-0.00
 000141,-0.00000211,-0.00000105,-0.00000005,-0.00000017,-0.00000024,0.0
 0000014,-0.00000001,0.00000004,-0.00000002,0.00000014,0.,-0.00000001,-
 0.00000006,0.,-0.00000007,0.00000002,-0.00000002,-0.00000003,0.0000000
 2,0.,-0.00000004,0.00000002,-0.00000004,-0.00000004,-0.00000003,-0.000
 00011,-0.00000046,-0.00000057,0.00000014,-0.00000032,0.00000003,-0.000
 00015,0.00000007,-0.00000034,-0.00000006,0.,-0.00000018,0.00000006,0.,
 0.,-0.00000003,-0.00000017,0.00000004,-0.00000001,0.00000204,0.0000029
 7,0.00000143,0.00000007,-0.00000003,0.00000004,0.00000043,0.00000031,-
 0.00000023\\\@


 Change starts when someone sees the next step.
                            -- William Drayton
 Job cpu time:       0 days  0 hours  0 minutes 31.0 seconds.
 File lengths (MBytes):  RWF=     51 Int=      0 D2E=      0 Chk=      2 Scr=      1
 Normal termination of Gaussian 09 at Tue Feb 16 09:21:33 2021.
