 Entering Gaussian System, Link 0=g09
 Initial command:
 /cm/shared/apps/Gaussian09/g09/l1.exe "/local/Gau-121143.inp" -scrdir="/local/"
 Entering Link 1 = /cm/shared/apps/Gaussian09/g09/l1.exe PID=    121144.
  
 Copyright (c) 1988,1990,1992,1993,1995,1998,2003,2009,2013,
            Gaussian, Inc.  All Rights Reserved.
  
 This is part of the Gaussian(R) 09 program.  It is based on
 the Gaussian(R) 03 system (copyright 2003, Gaussian, Inc.),
 the Gaussian(R) 98 system (copyright 1998, Gaussian, Inc.),
 the Gaussian(R) 94 system (copyright 1995, Gaussian, Inc.),
 the Gaussian 92(TM) system (copyright 1992, Gaussian, Inc.),
 the Gaussian 90(TM) system (copyright 1990, Gaussian, Inc.),
 the Gaussian 88(TM) system (copyright 1988, Gaussian, Inc.),
 the Gaussian 86(TM) system (copyright 1986, Carnegie Mellon
 University), and the Gaussian 82(TM) system (copyright 1983,
 Carnegie Mellon University). Gaussian is a federally registered
 trademark of Gaussian, Inc.
  
 This software contains proprietary and confidential information,
 including trade secrets, belonging to Gaussian, Inc.
  
 This software is provided under written license and may be
 used, copied, transmitted, or stored only in accord with that
 written license.
  
 The following legend is applicable only to US Government
 contracts under FAR:
  
                    RESTRICTED RIGHTS LEGEND
  
 Use, reproduction and disclosure by the US Government is
 subject to restrictions as set forth in subparagraphs (a)
 and (c) of the Commercial Computer Software - Restricted
 Rights clause in FAR 52.227-19.
  
 Gaussian, Inc.
 340 Quinnipiac St., Bldg. 40, Wallingford CT 06492
  
  
 ---------------------------------------------------------------
 Warning -- This program may not be used in any manner that
 competes with the business of Gaussian, Inc. or will provide
 assistance to any competitor of Gaussian, Inc.  The licensee
 of this program is prohibited from giving any competitor of
 Gaussian, Inc. access to this program.  By using this program,
 the user acknowledges that Gaussian, Inc. is engaged in the
 business of creating and licensing software in the field of
 computational chemistry and represents and warrants to the
 licensee that it is not a competitor of Gaussian, Inc. and that
 it will not use this program in any manner prohibited above.
 ---------------------------------------------------------------
  

 Cite this work as:
 Gaussian 09, Revision D.01,
 M. J. Frisch, G. W. Trucks, H. B. Schlegel, G. E. Scuseria, 
 M. A. Robb, J. R. Cheeseman, G. Scalmani, V. Barone, B. Mennucci, 
 G. A. Petersson, H. Nakatsuji, M. Caricato, X. Li, H. P. Hratchian, 
 A. F. Izmaylov, J. Bloino, G. Zheng, J. L. Sonnenberg, M. Hada, 
 M. Ehara, K. Toyota, R. Fukuda, J. Hasegawa, M. Ishida, T. Nakajima, 
 Y. Honda, O. Kitao, H. Nakai, T. Vreven, J. A. Montgomery, Jr., 
 J. E. Peralta, F. Ogliaro, M. Bearpark, J. J. Heyd, E. Brothers, 
 K. N. Kudin, V. N. Staroverov, T. Keith, R. Kobayashi, J. Normand, 
 K. Raghavachari, A. Rendell, J. C. Burant, S. S. Iyengar, J. Tomasi, 
 M. Cossi, N. Rega, J. M. Millam, M. Klene, J. E. Knox, J. B. Cross, 
 V. Bakken, C. Adamo, J. Jaramillo, R. Gomperts, R. E. Stratmann, 
 O. Yazyev, A. J. Austin, R. Cammi, C. Pomelli, J. W. Ochterski, 
 R. L. Martin, K. Morokuma, V. G. Zakrzewski, G. A. Voth, 
 P. Salvador, J. J. Dannenberg, S. Dapprich, A. D. Daniels, 
 O. Farkas, J. B. Foresman, J. V. Ortiz, J. Cioslowski, 
 and D. J. Fox, Gaussian, Inc., Wallingford CT, 2013.
 
 ******************************************
 Gaussian 09:  ES64L-G09RevD.01 24-Apr-2013
                16-Feb-2021 
 ******************************************
 %nprocshared=1
 Will use up to    1 processors via shared memory.
 ----------------------------------------------------------------------
 #P upm6 scf=qc opt(calcall, ts, noeigentest, cartesian,maxcycle=100) N
 oSymm, guess=mix
 ----------------------------------------------------------------------
 1/5=1,6=100,10=4,11=1,14=-1,18=10,26=1,38=1/1,3;
 2/12=2,15=1,17=6,18=5,29=2,40=1/2;
 3/5=2,16=1,25=1,41=3900000,71=2,116=2,140=1/1,2,3;
 4/13=-1,35=1/1;
 5/5=2,8=3,35=1,38=5/8;
 8/6=4,10=90,11=11/1;
 11/6=1,8=1,9=11,15=111,16=1,31=1/1,2,10;
 10/6=1,31=1/2;
 6/7=2,8=2,9=2,10=2,18=1,28=1/1;
 7/7=1,10=1,25=1,30=1/1,2,3,16;
 1/5=1,6=100,10=4,11=1,14=-1,18=10,26=1/3(3);
 2/15=1,29=1/2;
 7/7=1,8=1,9=1,25=1,30=1,44=-1/16;
 99/12=1/99;
 2/15=1,29=1/2;
 3/5=2,16=1,25=1,41=3900000,71=2,116=2,135=20,140=1/1,2,3;
 4/5=5,16=3,35=1/1;
 5/5=2,8=3,35=1,38=5/8;
 8/6=4,10=90,11=11/1;
 11/6=1,8=1,9=11,15=111,16=1,31=1/1,2,10;
 10/6=1,31=1/2;
 7/7=1,10=1,25=1,30=1/1,2,3,16;
 1/5=1,6=100,10=4,11=1,14=-1,18=10,26=1/3(-8);
 2/15=1,29=1/2;
 6/7=2,8=2,9=2,10=2,18=1,19=2,28=1/1;
 7/7=1,8=1,9=1,25=1,30=1,44=-1/16;
 99/12=1/99;
 Leave Link    1 at Tue Feb 16 09:45:56 2021, MaxMem=           0 cpu:         0.0
 (Enter /cm/shared/apps/Gaussian09/g09/l101.exe)
 ------------------------------
 Gaussian input prepared by ASE
 ------------------------------
 Symbolic Z-matrix:
 Charge =  0 Multiplicity = 1
 C                    -0.28381   0.24565   1.52638 
 C                    -0.31709  -0.09806   0.0312 
 C                     0.64521   0.69183  -0.7532 
 C                     0.76399   0.60065  -2.21273 
 C                    -1.29897  -0.23263   3.79114 
 C                    -1.27123  -0.60901   2.3258 
 H                     0.74006   0.10857   1.9319 
 H                    -0.51218   1.32102   1.68179 
 H                    -0.10447  -1.18381  -0.1139 
 H                    -1.34616   0.04889  -0.36937 
 H                     1.32495   1.37305  -0.25188 
 H                     3.64736   0.97553  -2.84307 
 C                    -0.07549  -0.40027  -2.95238 
 H                    -1.94604  -0.86868   4.41832 
 H                    -2.29539  -0.50816   1.90965 
 H                    -1.01847  -1.68473   2.22691 
 H                     0.17805  -1.42842  -2.66037 
 H                     0.09459  -0.32598  -4.03839 
 H                    -1.1477   -0.25452  -2.77806 
 O                    -0.67299   0.69011   4.25838 
 O                     3.36038   0.20012  -2.31366 
 O                     1.53539   1.33884  -2.81446 
 
 NAtoms=     22 NQM=       22 NQMF=       0 NMMI=      0 NMMIF=      0
                NMic=       0 NMicF=      0.
                    Isotopes and Nuclear Properties:
 (Nuclear quadrupole moments (NQMom) in fm**2, nuclear magnetic moments (NMagM)
  in nuclear magnetons)

  Atom         1           2           3           4           5           6           7           8           9          10
 IAtWgt=          12          12          12          12          12          12           1           1           1           1
 AtmWgt=  12.0000000  12.0000000  12.0000000  12.0000000  12.0000000  12.0000000   1.0078250   1.0078250   1.0078250   1.0078250
 NucSpn=           0           0           0           0           0           0           1           1           1           1
 AtZEff=   0.0000000   0.0000000   0.0000000   0.0000000   0.0000000   0.0000000   0.0000000   0.0000000   0.0000000   0.0000000
 NQMom=    0.0000000   0.0000000   0.0000000   0.0000000   0.0000000   0.0000000   0.0000000   0.0000000   0.0000000   0.0000000
 NMagM=    0.0000000   0.0000000   0.0000000   0.0000000   0.0000000   0.0000000   2.7928460   2.7928460   2.7928460   2.7928460
 AtZNuc=   6.0000000   6.0000000   6.0000000   6.0000000   6.0000000   6.0000000   1.0000000   1.0000000   1.0000000   1.0000000

  Atom        11          12          13          14          15          16          17          18          19          20
 IAtWgt=           1           1          12           1           1           1           1           1           1          16
 AtmWgt=   1.0078250   1.0078250  12.0000000   1.0078250   1.0078250   1.0078250   1.0078250   1.0078250   1.0078250  15.9949146
 NucSpn=           1           1           0           1           1           1           1           1           1           0
 AtZEff=   0.0000000   0.0000000   0.0000000   0.0000000   0.0000000   0.0000000   0.0000000   0.0000000   0.0000000   0.0000000
 NQMom=    0.0000000   0.0000000   0.0000000   0.0000000   0.0000000   0.0000000   0.0000000   0.0000000   0.0000000   0.0000000
 NMagM=    2.7928460   2.7928460   0.0000000   2.7928460   2.7928460   2.7928460   2.7928460   2.7928460   2.7928460   0.0000000
 AtZNuc=   1.0000000   1.0000000   6.0000000   1.0000000   1.0000000   1.0000000   1.0000000   1.0000000   1.0000000   8.0000000

  Atom        21          22
 IAtWgt=          16          16
 AtmWgt=  15.9949146  15.9949146
 NucSpn=           0           0
 AtZEff=   0.0000000   0.0000000
 NQMom=    0.0000000   0.0000000
 NMagM=    0.0000000   0.0000000
 AtZNuc=   8.0000000   8.0000000
 Leave Link  101 at Tue Feb 16 09:45:56 2021, MaxMem=    33554432 cpu:         0.1
 (Enter /cm/shared/apps/Gaussian09/g09/l103.exe)

 GradGradGradGradGradGradGradGradGradGradGradGradGradGradGradGradGradGrad
 Berny optimization.
 Initialization pass.
 No Z-matrix variables, so optimization will use Cartesian coordinates.
 Trust Radius=3.00D-01 FncErr=1.00D-07 GrdErr=1.00D-07
 Number of steps in this run=    100 maximum allowed number of steps=    132.
 Search for a saddle point of order  1.
 GradGradGradGradGradGradGradGradGradGradGradGradGradGradGradGradGradGrad

 Leave Link  103 at Tue Feb 16 09:45:56 2021, MaxMem=    33554432 cpu:         0.0
 (Enter /cm/shared/apps/Gaussian09/g09/l202.exe)
 ---------------------------------------------------------------------------------------------------
                            Z-MATRIX (ANGSTROMS AND DEGREES)
   CD    Cent   Atom    N1       Length/X        N2       Alpha/Y        N3        Beta/Z          J
 ---------------------------------------------------------------------------------------------------
      1      1  C        0  -0.283810          0.245649          1.526376
      2      2  C        0  -0.317091         -0.098064          0.031198
      3      3  C        0   0.645214          0.691830         -0.753197
      4      4  C        0   0.763986          0.600646         -2.212734
      5      5  C        0  -1.298966         -0.232630          3.791140
      6      6  C        0  -1.271226         -0.609006          2.325795
      7      7  H        0   0.740061          0.108571          1.931899
      8      8  H        0  -0.512177          1.321019          1.681791
      9      9  H        0  -0.104472         -1.183810         -0.113896
     10     10  H        0  -1.346157          0.048889         -0.369367
     11     11  H        0   1.324952          1.373053         -0.251881
     12     12  H        0   3.647362          0.975528         -2.843065
     13     13  C        0  -0.075494         -0.400266         -2.952382
     14     14  H        0  -1.946041         -0.868677          4.418319
     15     15  H        0  -2.295385         -0.508159          1.909651
     16     16  H        0  -1.018470         -1.684734          2.226913
     17     17  H        0   0.178053         -1.428418         -2.660371
     18     18  H        0   0.094590         -0.325977         -4.038387
     19     19  H        0  -1.147704         -0.254523         -2.778059
     20     20  O        0  -0.672991          0.690109          4.258375
     21     21  O        0   3.360380          0.200124         -2.313656
     22     22  O        0   1.535388          1.338843         -2.814463
 ---------------------------------------------------------------------------------------------------
                         Z-Matrix orientation:                         
 ---------------------------------------------------------------------
 Center     Atomic      Atomic             Coordinates (Angstroms)
 Number     Number       Type             X           Y           Z
 ---------------------------------------------------------------------
      1          6           0       -0.283810    0.245649    1.526376
      2          6           0       -0.317091   -0.098064    0.031198
      3          6           0        0.645214    0.691830   -0.753197
      4          6           0        0.763986    0.600646   -2.212734
      5          6           0       -1.298966   -0.232630    3.791140
      6          6           0       -1.271226   -0.609006    2.325795
      7          1           0        0.740061    0.108571    1.931899
      8          1           0       -0.512177    1.321019    1.681791
      9          1           0       -0.104472   -1.183810   -0.113896
     10          1           0       -1.346157    0.048889   -0.369367
     11          1           0        1.324952    1.373053   -0.251881
     12          1           0        3.647362    0.975528   -2.843065
     13          6           0       -0.075494   -0.400266   -2.952382
     14          1           0       -1.946041   -0.868677    4.418319
     15          1           0       -2.295385   -0.508159    1.909651
     16          1           0       -1.018470   -1.684734    2.226913
     17          1           0        0.178053   -1.428418   -2.660371
     18          1           0        0.094590   -0.325977   -4.038387
     19          1           0       -1.147704   -0.254523   -2.778059
     20          8           0       -0.672991    0.690109    4.258375
     21          8           0        3.360380    0.200124   -2.313656
     22          8           0        1.535388    1.338843   -2.814463
 ---------------------------------------------------------------------
                    Distance matrix (angstroms):
                    1          2          3          4          5
     1  C    0.000000
     2  C    1.534537   0.000000
     3  C    2.501723   1.471475   0.000000
     4  C    3.899339   2.586920   1.467198   0.000000
     5  C    2.527538   3.888361   5.028465   6.402861   0.000000
     6  C    1.531175   2.537048   3.852935   5.118944   1.513164
     7  H    1.109753   2.184704   2.749350   4.173810   2.780436
     8  H    1.110282   2.185478   2.768501   4.161112   2.735364
     9  H    2.183119   1.115842   2.118669   2.888533   4.192954
    10  H    2.182003   1.114013   2.127500   2.855721   4.170288
    11  H    2.649784   2.222751   1.085093   2.180881   5.080274
    12  H    5.922740   5.013070   3.668913   2.975182   8.362923
    13  C    4.529887   3.008562   2.559005   1.501210   6.855660
    14  H    3.516827   4.742800   5.991190   7.312593   1.103003
    15  H    2.182100   2.758697   4.144618   5.251977   2.146804
    16  H    2.181022   2.798324   4.158961   5.301941   2.152694
    17  H    4.532623   3.042951   2.889810   2.158888   6.725585
    18  H    5.606829   4.096700   3.483043   2.154003   7.953125
    19  H    4.418670   2.933653   2.865346   2.169208   6.570977
    20  O    2.795143   4.314731   5.182038   6.629341   1.208967
    21  O    5.294151   4.371619   3.170005   2.629043   7.691899
    22  O    4.831919   3.687027   2.336633   1.225591   7.357790
                    6          7          8          9         10
     6  C    0.000000
     7  H    2.171485   0.000000
     8  H    2.171611   1.760876   0.000000
     9  H    2.764744   2.562960   3.108840   0.000000
    10  H    2.775309   3.106717   2.553642   1.768218   0.000000
    11  H    4.160903   2.590349   2.667740   2.932549   2.983628
    12  H    7.308924   5.657234   6.155928   5.117359   5.649166
    13  C    5.415949   4.977976   4.962769   2.944789   2.913467
    14  H    2.213924   3.788462   3.786729   4.902210   4.911591
    15  H    1.110066   3.097545   2.564692   3.057997   2.530861
    16  H    1.109439   2.528914   3.096456   2.562363   3.139028
    17  H    5.256776   4.875155   5.185575   2.573750   3.123196
    18  H    6.515241   6.020779   5.983410   4.022081   3.959543
    19  H    5.117640   5.087160   4.772472   3.008267   2.435824
    20  O    2.404257   2.783414   2.657573   4.790777   4.720202
    21  O    6.605374   4.989909   5.675976   4.331214   5.094568
    22  O    6.171989   4.967300   4.940561   4.043016   3.993216
                   11         12         13         14         15
    11  H    0.000000
    12  H    3.502263   0.000000
    13  C    3.521167   3.970443   0.000000
    14  H    6.126624   9.349596   7.618766   0.000000
    15  H    4.617144   7.752798   5.345926   2.558404   0.000000
    16  H    4.581060   7.385909   5.418871   2.515670   1.765077
    17  H    3.868390   4.224741   1.098478   7.411676   5.277298
    18  H    4.328755   3.967984   1.101751   8.716340   6.412825
    19  H    3.891607   4.950748   1.096022   7.266525   4.832818
    20  O    4.980020   8.317293   7.317167   2.018924   3.095886
    21  O    3.125643   0.981776   3.545937   8.638283   7.094058
    22  O    2.571435   2.143187   2.374545   8.325060   6.356374
                   16         17         18         19         20
    16  H    0.000000
    17  H    5.038145   0.000000
    18  H    6.506851   1.766712   0.000000
    19  H    5.206914   1.774686   1.771109   0.000000
    20  O    3.144213   7.285704   8.393919   7.115412   0.000000
    21  O    6.583600   3.591597   3.730531   4.554689   7.726562
    22  O    6.409343   3.086071   2.519030   3.120757   7.437932
                   21         22
    21  O    0.000000
    22  O    2.208639   0.000000
 Symmetry turned off by external request.
 Stoichiometry    C7H12O3
 Framework group  C1[X(C7H12O3)]
 Deg. of freedom    60
 Full point group                 C1      NOp   1
 Rotational constants (GHZ):      2.8108852      0.4113897      0.3815281
 Leave Link  202 at Tue Feb 16 09:45:56 2021, MaxMem=    33554432 cpu:         0.0
 (Enter /cm/shared/apps/Gaussian09/g09/l301.exe)
 Standard basis: VSTO-6G (5D, 7F)
 Ernie: Thresh=  0.10000D-02 Tol=  0.10000D-05 Strict=F.
  NNHCO=     0 NNPyr=     0 NCTC=     0               EPep=         0.000000000
    EC=       242.014887625  ECS=         4.078750491   EG=         0.357721707
   EHC=         0.001308390  EAt=       -66.250074573  AtH=         3.187411664
 EPDDG=         0.000000000  ECC=       246.452668213 EAtT=        69.437486237
    52 basis functions,   312 primitive gaussians,    52 cartesian basis functions
    29 alpha electrons       29 beta electrons
       nuclear repulsion energy       315.8901544502 Hartrees.
 IExCor=    0 DFT=F Ex=HF Corr=None ExCW=0 ScaHFX=  1.000000
 ScaDFX=  1.000000  1.000000  1.000000  1.000000 ScalE2=  1.000000  1.000000
 IRadAn=      0 IRanWt=     -1 IRanGd=            0 ICorTp=0 IEmpDi=  4
 Integral buffers will be    131072 words long.
 Regular integral format.
 Two-electron integral symmetry is turned off.
 Leave Link  301 at Tue Feb 16 09:45:56 2021, MaxMem=    33554432 cpu:         0.0
 (Enter /cm/shared/apps/Gaussian09/g09/l302.exe)
 Do NDO integrals.
 NPDir=0 NMtPBC=     1 NCelOv=     1 NCel=       1 NClECP=     1 NCelD=      1
         NCelK=      1 NCelE2=     1 NClLst=     1 CellRange=     0.0.
 One-electron integrals computed using PRISM.
 NBasis=    52 RedAO= F EigKep=  0.00D+00  NBF=    52
 NBsUse=    52 1.00D-04 EigRej=  0.00D+00 NBFU=    52
 Leave Link  302 at Tue Feb 16 09:45:56 2021, MaxMem=    33554432 cpu:         0.1
 (Enter /cm/shared/apps/Gaussian09/g09/l303.exe)
 DipDrv:  MaxL=1.
 Leave Link  303 at Tue Feb 16 09:45:56 2021, MaxMem=    33554432 cpu:         0.0
 (Enter /cm/shared/apps/Gaussian09/g09/l401.exe)
 Simple Huckel Guess.
 JPrj=0 DoOrth=F DoCkMO=T.
 Mixing orbitals, IMix= 1 IMixAn=  0 NRI=1 NE=   29 Coef=  7.07106781D-01  7.07106781D-01
 Mixing orbitals, IMix= 1 IMixAn=  0 NRI=1 NE=   29 Coef= -7.07106781D-01  7.07106781D-01
 Initial guess <Sx>= 0.0000 <Sy>= 0.0000 <Sz>= 0.0000 <S**2>= 1.0000 S= 0.6180
 Leave Link  401 at Tue Feb 16 09:45:56 2021, MaxMem=    33554432 cpu:         0.0
 (Enter /cm/shared/apps/Gaussian09/g09/l508.exe)
 Direct SCF.
 Tight linear equation convergence will be used.
 UPM6 wavefunction.
 Quadratic Convergence SCF Method.
 Line search only if initial step raises energy.
 Two-electron integral symmetry not used.
 ReadGW:  IGet=1 IStart=       59293 Next=       59293 LGW=           0.
 Keep J ints in memory in canonical form, NReq=905730.
 FoFCou: FMM=F IPFlag=           0 FMFlag=           0 FMFlg1=           0
         NFxFlg=           0 DoJE=F BraDBF=F KetDBF=F FulRan=T
         wScrn=  0.000000 ICntrl=     600 IOpCl=  2 I1Cent=           0 NGrid=           0
         NMat0=    1 NMatS0=    112 NMatT0=    0 NMatD0=    1 NMtDS0=    0 NMtDT0=    0
 Symmetry not used in FoFCou.
 Iteration   1 EE= 0.556154397481123                                    Grad=4.773D-01 Max rot=    5.0914 deg.
 Gradient too large for Newton-Raphson -- use scaled steepest descent instead.
 Alpha Gap=     0.194 HL deriv= 3.13D-01
  Beta Gap=     0.201 HL deriv= 2.96D-01
     ILin= 1 X=0.000D+00 Y= 5.561543974811D-01 DE= 0.00D+00 F= -7.04D-01
     ILin= 2 X=3.000D-01 Y= 3.675669321410D-01 DE=-1.89D-01 F= -5.51D-01
     ILin= 3 X=4.000D-01 Y= 3.150696906923D-01 DE=-2.41D-01 F= -4.99D-01
     ILin= 4 X=6.000D-01 Y= 2.259927979624D-01 DE=-3.30D-01 F= -3.92D-01
     ILin= 5 X=8.000D-01 Y= 1.582997912247D-01 DE=-3.98D-01 F= -2.85D-01
     ILin= 6 X=1.200D+00 Y= 8.751944832011D-02 DE=-4.69D-01 F= -6.84D-02
     ILin= 7 X=1.700D+00 Y= 1.226556444808D-01 DE=-4.33D-01 F=  2.11D-01
     An  expanding polynomial of degree  7 produced  1.3247
     Minimum is close to point  6 DX=  1.25D-01 DF= -4.27D-03 DXR=  9.41D-02 DFR=  9.12D-03 which will be used.
 Iteration   2 EE= 0.875194483201085E-01 Delta-E=       -0.468634949161 Grad=1.691D-01 Max rot=    1.9159 deg.
 Gradient too large for Newton-Raphson -- use scaled steepest descent instead.
 Alpha Gap=     0.274 HL deriv= 4.41D-02
  Beta Gap=     0.282 HL deriv= 1.17D-02
     ILin= 1 X=0.000D+00 Y= 8.751944832011D-02 DE= 0.00D+00 F= -8.97D-02
     ILin= 2 X=6.000D-01 Y= 4.265324413200D-02 DE=-4.49D-02 F= -5.93D-02
     ILin= 3 X=9.000D-01 Y= 2.731707776240D-02 DE=-6.02D-02 F= -4.28D-02
     ILin= 4 X=1.400D+00 Y= 1.315170577038D-02 DE=-7.44D-02 F= -1.35D-02
     ILin= 5 X=2.000D+00 Y= 1.621782955385D-02 DE=-7.13D-02 F=  2.41D-02
     An  expanding polynomial of degree  5 produced  1.6200
 Iteration   3 EE= 0.116605005583779E-01 Delta-E=       -0.075858947762 Grad=8.134D-02 Max rot=    1.8299 deg.
 Gradient too large for Newton-Raphson -- use scaled steepest descent instead.
 Alpha Gap=     0.289 HL deriv= 4.40D-02
  Beta Gap=     0.297 HL deriv= 9.23D-04
     ILin= 1 X=0.000D+00 Y= 1.166050055838D-02 DE= 0.00D+00 F= -2.51D-02
     ILin= 2 X=1.500D+00 Y=-1.414200703300D-02 DE=-2.58D-02 F= -8.84D-03
     ILin= 3 X=2.200D+00 Y=-1.739952700098D-02 DE=-2.91D-02 F= -3.76D-04
     Reject lnstep minimum 2.755D+00 FVal=-1.750641123776D-02 Lims=  1.50D+00  2.20D+00
     ILin= 4 X=3.200D+00 Y=-1.138917367655D-02 DE=-2.30D-02 F=  1.25D-02
     An  expanding polynomial of degree  4 produced  2.2311
     Minimum is close to point  3 DX=  3.11D-02 DF= -6.02D-06 DXR=  1.39D-02 DFR=  2.07D-04 which will be used.
 Iteration   4 EE=-0.173995270009755E-01 Delta-E=       -0.029060027559 Grad=9.892D-02 Max rot=    1.5050 deg.
 Gradient too large for Newton-Raphson -- use scaled steepest descent instead.
 Alpha Gap=     0.299 HL deriv= 4.21D-02
  Beta Gap=     0.301 HL deriv= 2.65D-02
     ILin= 1 X=0.000D+00 Y=-1.739952700098D-02 DE= 0.00D+00 F= -3.59D-02
     ILin= 2 X=1.900D+00 Y=-5.361622260750D-02 DE=-3.62D-02 F= -1.01D-04
     ILin= 3 X=3.000D+00 Y=-3.995294559286D-02 DE=-2.26D-02 F=  2.53D-02
     An  expanding polynomial of degree  3 produced  1.8582
     Minimum is close to point  2 DX= -4.18D-02 DF= -1.83D-05 DXR=  2.25D-02 DFR=  5.07D-04 which will be used.
 Iteration   5 EE=-0.536162226075021E-01 Delta-E=       -0.036216695607 Grad=9.497D-02 Max rot=    1.9755 deg.
 Gradient too large for Newton-Raphson -- use scaled steepest descent instead.
 Alpha Gap=     0.318 HL deriv= 3.20D-02
  Beta Gap=     0.335 HL deriv= 1.79D-02
     ILin= 1 X=0.000D+00 Y=-5.361622260750D-02 DE= 0.00D+00 F= -2.91D-02
     ILin= 2 X=2.000D+00 Y=-7.242450759929D-02 DE=-1.88D-02 F=  1.10D-02
     Accept linear search using points  1 and  2.
     An  expanding polynomial of degree  2 produced  1.7917
 Iteration   6 EE=-0.742634610251116E-01 Delta-E=       -0.020647238418 Grad=7.474D-02 Max rot=    0.9612 deg.
 Gradient too large for Newton-Raphson -- use scaled steepest descent instead.
 Alpha Gap=     0.342 HL deriv= 2.44D-02
  Beta Gap=     0.336 HL deriv= 6.72D-03
     ILin= 1 X=0.000D+00 Y=-7.426346102511D-02 DE= 0.00D+00 F= -1.49D-02
     ILin= 2 X=1.800D+00 Y=-8.035075025373D-02 DE=-6.09D-03 F=  7.99D-03
     Accept linear search using points  1 and  2.
     An  expanding polynomial of degree  2 produced  1.4014
 Iteration   7 EE=-0.825399994538429E-01 Delta-E=       -0.008276538429 Grad=3.574D-02 Max rot=    0.4402 deg.
 Gradient too large for Newton-Raphson -- use scaled steepest descent instead.
 Alpha Gap=     0.339 HL deriv= 1.40D-02
  Beta Gap=     0.344 HL deriv= 3.95D-04
     ILin= 1 X=0.000D+00 Y=-8.253999945384D-02 DE= 0.00D+00 F= -3.49D-03
     ILin= 2 X=1.600D+00 Y=-8.464779908581D-02 DE=-2.11D-03 F=  8.72D-04
     Accept linear search using points  1 and  2.
     An  expanding polynomial of degree  2 produced  1.4522
 Iteration   8 EE=-0.847466361913121E-01 Delta-E=       -0.002206636737 Grad=1.870D-02 Max rot=    0.2205 deg.
 Gradient too large for Newton-Raphson -- use scaled steepest descent instead.
 Alpha Gap=     0.344 HL deriv= 1.12D-02
  Beta Gap=     0.341 HL deriv= 9.93D-05
     ILin= 1 X=0.000D+00 Y=-8.474663619131D-02 DE= 0.00D+00 F= -1.00D-03
     ILin= 2 X=1.400D+00 Y=-8.543720636749D-02 DE=-6.91D-04 F=  1.60D-05
     Accept linear search using points  1 and  2.
     An  expanding polynomial of degree  2 produced  1.3909
     Minimum is close to point  2 DX= -9.12D-03 DF= -5.19D-08 DXR=  6.56D-03 DFR=  7.52D-05 which will be used.
 Iteration   9 EE=-0.854372063674873E-01 Delta-E=       -0.000690570176 Grad=9.586D-03 Max rot=    0.1429 deg.
 QCNR:  CnvC1=3.65D-09 CnvC2=3.65D-08
 LinEq1:  Iter=  0 NonCon=     1 RMS=4.74D-04 Max=8.28D-03 NDo=     1
 AX will form     1 AO Fock derivatives at one time.
 LinEq1:  Iter=  1 NonCon=     1 RMS=1.45D-04 Max=1.95D-03 NDo=     1
 LinEq1:  Iter=  2 NonCon=     1 RMS=2.64D-05 Max=6.86D-04 NDo=     1
 LinEq1:  Iter=  3 NonCon=     1 RMS=5.47D-06 Max=1.06D-04 NDo=     1
 LinEq1:  Iter=  4 NonCon=     1 RMS=1.73D-06 Max=3.11D-05 NDo=     1
 LinEq1:  Iter=  5 NonCon=     1 RMS=3.03D-07 Max=3.73D-06 NDo=     1
 LinEq1:  Iter=  6 NonCon=     1 RMS=5.46D-08 Max=4.31D-07 NDo=     1
 LinEq1:  Iter=  7 NonCon=     1 RMS=8.03D-09 Max=8.06D-08 NDo=     1
 LinEq1:  Iter=  8 NonCon=     0 RMS=1.62D-09 Max=1.50D-08 NDo=     1
 Linear equations converged to 3.652D-09 3.652D-08 after     8 iterations.
 Angle between quadratic step and gradient=  68.09 degrees.
     ILin= 1 X=0.000D+00 Y=-8.543720636749D-02 DE= 0.00D+00 F= -1.04D-03
     ILin= 2 X=1.000D+00 Y=-8.595632577124D-02 DE=-5.19D-04 F=  9.40D-06
     Accept linear search using points  1 and  2.
     An  expanding polynomial of degree  2 produced  0.9911
     Minimum is close to point  2 DX= -8.85D-03 DF= -4.16D-08 DXR=  8.93D-03 DFR=  8.01D-05 which will be used.
 Iteration  10 EE=-0.859563257712352E-01 Delta-E=       -0.000519119404 Grad=3.358D-04 Max rot=    0.0052 deg.
 QCNR:  CnvC1=3.36D-09 CnvC2=3.36D-08
 LinEq1:  Iter=  0 NonCon=     1 RMS=1.45D-05 Max=2.03D-04 NDo=     1
 LinEq1:  Iter=  1 NonCon=     1 RMS=2.26D-06 Max=2.58D-05 NDo=     1
 LinEq1:  Iter=  2 NonCon=     1 RMS=5.41D-07 Max=6.68D-06 NDo=     1
 LinEq1:  Iter=  3 NonCon=     1 RMS=1.22D-07 Max=1.48D-06 NDo=     1
 LinEq1:  Iter=  4 NonCon=     1 RMS=2.65D-08 Max=4.34D-07 NDo=     1
 LinEq1:  Iter=  5 NonCon=     1 RMS=7.27D-09 Max=1.32D-07 NDo=     1
 LinEq1:  Iter=  6 NonCon=     0 RMS=1.92D-09 Max=2.38D-08 NDo=     1
 Linear equations converged to 3.358D-09 3.358D-08 after     6 iterations.
 Angle between quadratic step and gradient=  38.52 degrees.
     ILin= 1 X=0.000D+00 Y=-8.595632577124D-02 DE= 0.00D+00 F= -5.82D-07
     ILin= 2 X=1.000D+00 Y=-8.595661709182D-02 DE=-2.91D-07 F= -1.11D-09
     Reject lnstep minimum 1.002D+00 FVal=-8.595661709288D-02 Lims=  0.00D+00  1.00D+00
     ILin= 3 X=2.000D+00 Y=-8.595632804770D-02 DE=-2.28D-09 F=  5.79D-07
     An  expanding polynomial of degree  3 produced  1.0020
     Minimum is close to point  2 DX=  1.96D-03 DF= -1.12D-12 DXR=  1.96D-03 DFR=  3.83D-06 which will be used.
 Iteration  11 EE=-0.859566170918242E-01 Delta-E=       -0.000000291321 Grad=1.276D-05 Max rot=    0.0002 deg.
 QCNR:  CnvC1=1.28D-10 CnvC2=1.28D-09
 LinEq1:  Iter=  0 NonCon=     1 RMS=4.75D-07 Max=5.88D-06 NDo=     1
 LinEq1:  Iter=  1 NonCon=     1 RMS=1.52D-07 Max=2.83D-06 NDo=     1
 LinEq1:  Iter=  2 NonCon=     1 RMS=4.14D-08 Max=6.48D-07 NDo=     1
 LinEq1:  Iter=  3 NonCon=     1 RMS=1.10D-08 Max=1.30D-07 NDo=     1
 LinEq1:  Iter=  4 NonCon=     1 RMS=2.20D-09 Max=2.93D-08 NDo=     1
 LinEq1:  Iter=  5 NonCon=     1 RMS=5.09D-10 Max=5.93D-09 NDo=     1
 LinEq1:  Iter=  6 NonCon=     0 RMS=8.90D-11 Max=8.70D-10 NDo=     1
 Linear equations converged to 1.276D-10 1.276D-09 after     6 iterations.
 Angle between quadratic step and gradient=  75.68 degrees.
     ILin= 1 X=0.000D+00 Y=-8.595661709182D-02 DE= 0.00D+00 F= -1.91D-09
     ILin= 2 X=1.000D+00 Y=-8.595661804173D-02 DE=-9.50D-10
 Iteration  12 EE=-0.859566180417346E-01 Delta-E=       -0.000000000950 Grad=2.265D-06 Max rot=    0.0000 deg.
 QCNR:  CnvC1=2.27D-11 CnvC2=2.27D-10
 LinEq1:  Iter=  0 NonCon=     1 RMS=8.99D-08 Max=8.78D-07 NDo=     1
 LinEq1:  Iter=  1 NonCon=     1 RMS=1.85D-08 Max=2.08D-07 NDo=     1
 LinEq1:  Iter=  2 NonCon=     1 RMS=4.46D-09 Max=5.19D-08 NDo=     1
 LinEq1:  Iter=  3 NonCon=     1 RMS=9.87D-10 Max=1.35D-08 NDo=     1
 LinEq1:  Iter=  4 NonCon=     1 RMS=2.36D-10 Max=3.96D-09 NDo=     1
 LinEq1:  Iter=  5 NonCon=     1 RMS=6.11D-11 Max=9.91D-10 NDo=     1
 LinEq1:  Iter=  6 NonCon=     0 RMS=1.85D-11 Max=2.24D-10 NDo=     1
 Linear equations converged to 2.265D-11 2.265D-10 after     6 iterations.
 Angle between quadratic step and gradient=  44.87 degrees.
     ILin= 1 X=0.000D+00 Y=-8.595661804173D-02 DE= 0.00D+00 F= -2.52D-11
     ILin= 2 X=1.000D+00 Y=-8.595661805595D-02 DE=-1.42D-11
 Iteration  13 EE=-0.859566180559455E-01 Delta-E=       -0.000000000014 Grad=1.156D-07 Max rot=    0.0000 deg.
 Rotation gradient small -- convergence achieved.
 SCF Done:  E(UPM6) = -0.859566180559E-01 a.u. after   13 cycles
            Convg  =    0.1156D-06                    55 Fock formations.
              S**2 =  1.0152                  -V/T =  0.9975
 <Sx>= 0.0000 <Sy>= 0.0000 <Sz>= 0.0000 <S**2>= 1.0152 S= 0.6248
 <L.S>= 0.000000000000E+00
 Annihilation of the first spin contaminant:
 S**2 before annihilation     1.0152,   after     0.1496
 Leave Link  508 at Tue Feb 16 09:45:56 2021, MaxMem=    33554432 cpu:         0.1
 (Enter /cm/shared/apps/Gaussian09/g09/l801.exe)
 Range of M.O.s used for correlation:     1    52
 NBasis=    52 NAE=    29 NBE=    29 NFC=     0 NFV=     0
 NROrb=     52 NOA=    29 NOB=    29 NVA=    23 NVB=    23
 Leave Link  801 at Tue Feb 16 09:45:56 2021, MaxMem=    33554432 cpu:         0.0
 (Enter /cm/shared/apps/Gaussian09/g09/l1101.exe)
 Using compressed storage, NAtomX=    22.
 Will process     23 centers per pass.
 Leave Link 1101 at Tue Feb 16 09:45:56 2021, MaxMem=    33554432 cpu:         0.0
 (Enter /cm/shared/apps/Gaussian09/g09/l1102.exe)
 Symmetrizing basis deriv contribution to polar:
 IMax=3 JMax=2 DiffMx= 0.00D+00
 Leave Link 1102 at Tue Feb 16 09:45:56 2021, MaxMem=    33554432 cpu:         0.0
 (Enter /cm/shared/apps/Gaussian09/g09/l1110.exe)
 Forming Gx(P) for the SCF density, NAtomX=    22.
 Integral derivatives from FoFJK, PRISM(SPDF).
 Do as many integral derivatives as possible in FoFJK.
 G2DrvN: MDV=      33495261.
 G2DrvN: will do    23 centers at a time, making    1 passes.
 Calling FoFCou, ICntrl=  3107 FMM=F I1Cent=   0 AccDes= 0.00D+00.
 FoFJK:  IHMeth=40 ICntrl=    3107 DoSepK=F KAlg= 0 I1Cent=   0 FoldK=F
 IRaf=         0 NMat=   1 IRICut=       1 DoRegI=T DoRafI=F ISym2E= 0.
 FoFCou: FMM=F IPFlag=           0 FMFlag=      100000 FMFlg1=           0
         NFxFlg=           0 DoJE=F BraDBF=F KetDBF=F FulRan=T
         wScrn=  0.000000 ICntrl=    3107 IOpCl=  1 I1Cent=           0 NGrid=           0
         NMat0=    1 NMatS0=      1 NMatT0=    0 NMatD0=    1 NMtDS0=    0 NMtDT0=    0
 Symmetry not used in FoFCou.
 End of G2Drv F.D. properties file   721 does not exist.
 End of G2Drv F.D. properties file   722 does not exist.
 End of G2Drv F.D. properties file   788 does not exist.
 Leave Link 1110 at Tue Feb 16 09:45:56 2021, MaxMem=    33554432 cpu:         0.0
 (Enter /cm/shared/apps/Gaussian09/g09/l1002.exe)
 Minotr:  UHF open shell wavefunction.
          IDoAtm=1111111111111111111111
          Direct CPHF calculation.
          Differentiating once with respect to electric field.
                with respect to dipole field.
          Differentiating once with respect to nuclear coordinates.
          Electric field/nuclear overlap derivatives assumed to be zero.
          Requested convergence is 1.0D-08 RMS, and 1.0D-07 maximum.
          NewPWx=T KeepS1=F KeepF1=F KeepIn=T MapXYZ=F SortEE=F KeepMc=T.
          MDV=      33495213 using IRadAn=       2.
 Keep J ints in memory in canonical form, NReq=888555.
 FoFCou: FMM=F IPFlag=           0 FMFlag=           0 FMFlg1=           0
         NFxFlg=           0 DoJE=F BraDBF=F KetDBF=F FulRan=T
         wScrn=  0.000000 ICntrl=     600 IOpCl=  2 I1Cent=           0 NGrid=           0
         NMat0=    1 NMatS0=    112 NMatT0=    0 NMatD0=    1 NMtDS0=    0 NMtDT0=    0
 Symmetry not used in FoFCou.
          Solving linear equations separately, MaxMat=       0.
          There are    69 degrees of freedom in the 1st order CPHF.  IDoFFX=5 NUNeed=    69.
 LinEq1:  Iter=  0 NonCon=    69 RMS=1.69D-01 Max=1.89D+00 NDo=    69
 AX will form    69 AO Fock derivatives at one time.
 LinEq1:  Iter=  1 NonCon=    69 RMS=2.38D-02 Max=2.23D-01 NDo=    69
 LinEq1:  Iter=  2 NonCon=    69 RMS=4.89D-03 Max=6.54D-02 NDo=    69
 LinEq1:  Iter=  3 NonCon=    69 RMS=9.17D-04 Max=1.18D-02 NDo=    69
 LinEq1:  Iter=  4 NonCon=    69 RMS=1.69D-04 Max=2.80D-03 NDo=    69
 LinEq1:  Iter=  5 NonCon=    69 RMS=4.36D-05 Max=8.23D-04 NDo=    69
 LinEq1:  Iter=  6 NonCon=    69 RMS=8.21D-06 Max=1.36D-04 NDo=    69
 LinEq1:  Iter=  7 NonCon=    54 RMS=2.10D-06 Max=3.15D-05 NDo=    69
 LinEq1:  Iter=  8 NonCon=    21 RMS=4.63D-07 Max=6.60D-06 NDo=    69
 LinEq1:  Iter=  9 NonCon=     5 RMS=7.91D-08 Max=8.80D-07 NDo=    69
 LinEq1:  Iter= 10 NonCon=     2 RMS=1.28D-08 Max=1.72D-07 NDo=    69
 LinEq1:  Iter= 11 NonCon=     0 RMS=2.47D-09 Max=2.10D-08 NDo=    69
 Linear equations converged to 1.000D-08 1.000D-07 after    11 iterations.
 FullF1:  Do perturbations    1 to     3.
 Isotropic polarizability for W=    0.000000       59.98 Bohr**3.
 End of Minotr F.D. properties file   721 does not exist.
 End of Minotr F.D. properties file   722 does not exist.
 End of Minotr F.D. properties file   788 does not exist.
 Leave Link 1002 at Tue Feb 16 09:45:57 2021, MaxMem=    33554432 cpu:         0.4
 (Enter /cm/shared/apps/Gaussian09/g09/l601.exe)
 Copying SCF densities to generalized density rwf, IOpCl= 1 IROHF=0.

 **********************************************************************

            Population analysis using the SCF density.

 **********************************************************************

 Alpha  occ. eigenvalues --   -1.17904  -1.15507  -1.11423  -1.06954  -1.00742
 Alpha  occ. eigenvalues --   -0.95504  -0.87589  -0.79981  -0.74835  -0.69460
 Alpha  occ. eigenvalues --   -0.62786  -0.61865  -0.60612  -0.59522  -0.58968
 Alpha  occ. eigenvalues --   -0.56784  -0.55257  -0.54448  -0.53915  -0.50452
 Alpha  occ. eigenvalues --   -0.49934  -0.49631  -0.47963  -0.47139  -0.46438
 Alpha  occ. eigenvalues --   -0.44177  -0.43190  -0.38130  -0.37523
 Alpha virt. eigenvalues --   -0.03508   0.00751   0.05570   0.10268   0.11233
 Alpha virt. eigenvalues --    0.12352   0.13359   0.14623   0.15379   0.15729
 Alpha virt. eigenvalues --    0.17017   0.17121   0.17458   0.18089   0.18813
 Alpha virt. eigenvalues --    0.18861   0.19603   0.20237   0.20627   0.20649
 Alpha virt. eigenvalues --    0.21850   0.22609   0.23004
  Beta  occ. eigenvalues --   -1.17905  -1.16728  -1.07253  -1.01177  -0.95804
  Beta  occ. eigenvalues --   -0.95321  -0.88155  -0.80425  -0.74912  -0.70044
  Beta  occ. eigenvalues --   -0.62918  -0.62199  -0.60153  -0.58926  -0.57578
  Beta  occ. eigenvalues --   -0.55150  -0.54806  -0.53559  -0.50572  -0.50415
  Beta  occ. eigenvalues --   -0.50108  -0.49883  -0.48177  -0.46693  -0.44552
  Beta  occ. eigenvalues --   -0.38812  -0.37861  -0.36873  -0.36469
  Beta virt. eigenvalues --   -0.04364   0.00751   0.02527   0.10222   0.11006
  Beta virt. eigenvalues --    0.11989   0.13308   0.14165   0.15016   0.15659
  Beta virt. eigenvalues --    0.16709   0.16979   0.17357   0.17861   0.18759
  Beta virt. eigenvalues --    0.19328   0.20104   0.20438   0.20587   0.21202
  Beta virt. eigenvalues --    0.21465   0.22607   0.22931
          Condensed to atoms (all electrons):
               1          2          3          4          5          6
     1  C    4.212747   0.000000   0.000000   0.000000   0.000000   0.000000
     2  C    0.000000   4.268357   0.000000   0.000000   0.000000   0.000000
     3  C    0.000000   0.000000   4.244079   0.000000   0.000000   0.000000
     4  C    0.000000   0.000000   0.000000   3.432497   0.000000   0.000000
     5  C    0.000000   0.000000   0.000000   0.000000   3.594608   0.000000
     6  C    0.000000   0.000000   0.000000   0.000000   0.000000   4.447013
     7  H    0.000000   0.000000   0.000000   0.000000   0.000000   0.000000
     8  H    0.000000   0.000000   0.000000   0.000000   0.000000   0.000000
     9  H    0.000000   0.000000   0.000000   0.000000   0.000000   0.000000
    10  H    0.000000   0.000000   0.000000   0.000000   0.000000   0.000000
    11  H    0.000000   0.000000   0.000000   0.000000   0.000000   0.000000
    12  H    0.000000   0.000000   0.000000   0.000000   0.000000   0.000000
    13  C    0.000000   0.000000   0.000000   0.000000   0.000000   0.000000
    14  H    0.000000   0.000000   0.000000   0.000000   0.000000   0.000000
    15  H    0.000000   0.000000   0.000000   0.000000   0.000000   0.000000
    16  H    0.000000   0.000000   0.000000   0.000000   0.000000   0.000000
    17  H    0.000000   0.000000   0.000000   0.000000   0.000000   0.000000
    18  H    0.000000   0.000000   0.000000   0.000000   0.000000   0.000000
    19  H    0.000000   0.000000   0.000000   0.000000   0.000000   0.000000
    20  O    0.000000   0.000000   0.000000   0.000000   0.000000   0.000000
    21  O    0.000000   0.000000   0.000000   0.000000   0.000000   0.000000
    22  O    0.000000   0.000000   0.000000   0.000000   0.000000   0.000000
               7          8          9         10         11         12
     1  C    0.000000   0.000000   0.000000   0.000000   0.000000   0.000000
     2  C    0.000000   0.000000   0.000000   0.000000   0.000000   0.000000
     3  C    0.000000   0.000000   0.000000   0.000000   0.000000   0.000000
     4  C    0.000000   0.000000   0.000000   0.000000   0.000000   0.000000
     5  C    0.000000   0.000000   0.000000   0.000000   0.000000   0.000000
     6  C    0.000000   0.000000   0.000000   0.000000   0.000000   0.000000
     7  H    0.850428   0.000000   0.000000   0.000000   0.000000   0.000000
     8  H    0.000000   0.847864   0.000000   0.000000   0.000000   0.000000
     9  H    0.000000   0.000000   0.841310   0.000000   0.000000   0.000000
    10  H    0.000000   0.000000   0.000000   0.846352   0.000000   0.000000
    11  H    0.000000   0.000000   0.000000   0.000000   0.821311   0.000000
    12  H    0.000000   0.000000   0.000000   0.000000   0.000000   0.713930
    13  C    0.000000   0.000000   0.000000   0.000000   0.000000   0.000000
    14  H    0.000000   0.000000   0.000000   0.000000   0.000000   0.000000
    15  H    0.000000   0.000000   0.000000   0.000000   0.000000   0.000000
    16  H    0.000000   0.000000   0.000000   0.000000   0.000000   0.000000
    17  H    0.000000   0.000000   0.000000   0.000000   0.000000   0.000000
    18  H    0.000000   0.000000   0.000000   0.000000   0.000000   0.000000
    19  H    0.000000   0.000000   0.000000   0.000000   0.000000   0.000000
    20  O    0.000000   0.000000   0.000000   0.000000   0.000000   0.000000
    21  O    0.000000   0.000000   0.000000   0.000000   0.000000   0.000000
    22  O    0.000000   0.000000   0.000000   0.000000   0.000000   0.000000
              13         14         15         16         17         18
     1  C    0.000000   0.000000   0.000000   0.000000   0.000000   0.000000
     2  C    0.000000   0.000000   0.000000   0.000000   0.000000   0.000000
     3  C    0.000000   0.000000   0.000000   0.000000   0.000000   0.000000
     4  C    0.000000   0.000000   0.000000   0.000000   0.000000   0.000000
     5  C    0.000000   0.000000   0.000000   0.000000   0.000000   0.000000
     6  C    0.000000   0.000000   0.000000   0.000000   0.000000   0.000000
     7  H    0.000000   0.000000   0.000000   0.000000   0.000000   0.000000
     8  H    0.000000   0.000000   0.000000   0.000000   0.000000   0.000000
     9  H    0.000000   0.000000   0.000000   0.000000   0.000000   0.000000
    10  H    0.000000   0.000000   0.000000   0.000000   0.000000   0.000000
    11  H    0.000000   0.000000   0.000000   0.000000   0.000000   0.000000
    12  H    0.000000   0.000000   0.000000   0.000000   0.000000   0.000000
    13  C    4.624341   0.000000   0.000000   0.000000   0.000000   0.000000
    14  H    0.000000   0.910047   0.000000   0.000000   0.000000   0.000000
    15  H    0.000000   0.000000   0.828059   0.000000   0.000000   0.000000
    16  H    0.000000   0.000000   0.000000   0.829109   0.000000   0.000000
    17  H    0.000000   0.000000   0.000000   0.000000   0.808440   0.000000
    18  H    0.000000   0.000000   0.000000   0.000000   0.000000   0.801666
    19  H    0.000000   0.000000   0.000000   0.000000   0.000000   0.000000
    20  O    0.000000   0.000000   0.000000   0.000000   0.000000   0.000000
    21  O    0.000000   0.000000   0.000000   0.000000   0.000000   0.000000
    22  O    0.000000   0.000000   0.000000   0.000000   0.000000   0.000000
              19         20         21         22
     1  C    0.000000   0.000000   0.000000   0.000000
     2  C    0.000000   0.000000   0.000000   0.000000
     3  C    0.000000   0.000000   0.000000   0.000000
     4  C    0.000000   0.000000   0.000000   0.000000
     5  C    0.000000   0.000000   0.000000   0.000000
     6  C    0.000000   0.000000   0.000000   0.000000
     7  H    0.000000   0.000000   0.000000   0.000000
     8  H    0.000000   0.000000   0.000000   0.000000
     9  H    0.000000   0.000000   0.000000   0.000000
    10  H    0.000000   0.000000   0.000000   0.000000
    11  H    0.000000   0.000000   0.000000   0.000000
    12  H    0.000000   0.000000   0.000000   0.000000
    13  C    0.000000   0.000000   0.000000   0.000000
    14  H    0.000000   0.000000   0.000000   0.000000
    15  H    0.000000   0.000000   0.000000   0.000000
    16  H    0.000000   0.000000   0.000000   0.000000
    17  H    0.000000   0.000000   0.000000   0.000000
    18  H    0.000000   0.000000   0.000000   0.000000
    19  H    0.815393   0.000000   0.000000   0.000000
    20  O    0.000000   6.451707   0.000000   0.000000
    21  O    0.000000   0.000000   6.310226   0.000000
    22  O    0.000000   0.000000   0.000000   6.500517
          Atomic-Atomic Spin Densities.
               1          2          3          4          5          6
     1  C   -0.003224   0.000000   0.000000   0.000000   0.000000   0.000000
     2  C    0.000000   0.044842   0.000000   0.000000   0.000000   0.000000
     3  C    0.000000   0.000000  -0.949020   0.000000   0.000000   0.000000
     4  C    0.000000   0.000000   0.000000   0.094040   0.000000   0.000000
     5  C    0.000000   0.000000   0.000000   0.000000  -0.000052   0.000000
     6  C    0.000000   0.000000   0.000000   0.000000   0.000000   0.000981
     7  H    0.000000   0.000000   0.000000   0.000000   0.000000   0.000000
     8  H    0.000000   0.000000   0.000000   0.000000   0.000000   0.000000
     9  H    0.000000   0.000000   0.000000   0.000000   0.000000   0.000000
    10  H    0.000000   0.000000   0.000000   0.000000   0.000000   0.000000
    11  H    0.000000   0.000000   0.000000   0.000000   0.000000   0.000000
    12  H    0.000000   0.000000   0.000000   0.000000   0.000000   0.000000
    13  C    0.000000   0.000000   0.000000   0.000000   0.000000   0.000000
    14  H    0.000000   0.000000   0.000000   0.000000   0.000000   0.000000
    15  H    0.000000   0.000000   0.000000   0.000000   0.000000   0.000000
    16  H    0.000000   0.000000   0.000000   0.000000   0.000000   0.000000
    17  H    0.000000   0.000000   0.000000   0.000000   0.000000   0.000000
    18  H    0.000000   0.000000   0.000000   0.000000   0.000000   0.000000
    19  H    0.000000   0.000000   0.000000   0.000000   0.000000   0.000000
    20  O    0.000000   0.000000   0.000000   0.000000   0.000000   0.000000
    21  O    0.000000   0.000000   0.000000   0.000000   0.000000   0.000000
    22  O    0.000000   0.000000   0.000000   0.000000   0.000000   0.000000
               7          8          9         10         11         12
     1  C    0.000000   0.000000   0.000000   0.000000   0.000000   0.000000
     2  C    0.000000   0.000000   0.000000   0.000000   0.000000   0.000000
     3  C    0.000000   0.000000   0.000000   0.000000   0.000000   0.000000
     4  C    0.000000   0.000000   0.000000   0.000000   0.000000   0.000000
     5  C    0.000000   0.000000   0.000000   0.000000   0.000000   0.000000
     6  C    0.000000   0.000000   0.000000   0.000000   0.000000   0.000000
     7  H    0.000212   0.000000   0.000000   0.000000   0.000000   0.000000
     8  H    0.000000   0.000208   0.000000   0.000000   0.000000   0.000000
     9  H    0.000000   0.000000  -0.032650   0.000000   0.000000   0.000000
    10  H    0.000000   0.000000   0.000000  -0.027896   0.000000   0.000000
    11  H    0.000000   0.000000   0.000000   0.000000   0.030180   0.000000
    12  H    0.000000   0.000000   0.000000   0.000000   0.000000  -0.074709
    13  C    0.000000   0.000000   0.000000   0.000000   0.000000   0.000000
    14  H    0.000000   0.000000   0.000000   0.000000   0.000000   0.000000
    15  H    0.000000   0.000000   0.000000   0.000000   0.000000   0.000000
    16  H    0.000000   0.000000   0.000000   0.000000   0.000000   0.000000
    17  H    0.000000   0.000000   0.000000   0.000000   0.000000   0.000000
    18  H    0.000000   0.000000   0.000000   0.000000   0.000000   0.000000
    19  H    0.000000   0.000000   0.000000   0.000000   0.000000   0.000000
    20  O    0.000000   0.000000   0.000000   0.000000   0.000000   0.000000
    21  O    0.000000   0.000000   0.000000   0.000000   0.000000   0.000000
    22  O    0.000000   0.000000   0.000000   0.000000   0.000000   0.000000
              13         14         15         16         17         18
     1  C    0.000000   0.000000   0.000000   0.000000   0.000000   0.000000
     2  C    0.000000   0.000000   0.000000   0.000000   0.000000   0.000000
     3  C    0.000000   0.000000   0.000000   0.000000   0.000000   0.000000
     4  C    0.000000   0.000000   0.000000   0.000000   0.000000   0.000000
     5  C    0.000000   0.000000   0.000000   0.000000   0.000000   0.000000
     6  C    0.000000   0.000000   0.000000   0.000000   0.000000   0.000000
     7  H    0.000000   0.000000   0.000000   0.000000   0.000000   0.000000
     8  H    0.000000   0.000000   0.000000   0.000000   0.000000   0.000000
     9  H    0.000000   0.000000   0.000000   0.000000   0.000000   0.000000
    10  H    0.000000   0.000000   0.000000   0.000000   0.000000   0.000000
    11  H    0.000000   0.000000   0.000000   0.000000   0.000000   0.000000
    12  H    0.000000   0.000000   0.000000   0.000000   0.000000   0.000000
    13  C    0.002156   0.000000   0.000000   0.000000   0.000000   0.000000
    14  H    0.000000   0.000024   0.000000   0.000000   0.000000   0.000000
    15  H    0.000000   0.000000  -0.000030   0.000000   0.000000   0.000000
    16  H    0.000000   0.000000   0.000000  -0.000029   0.000000   0.000000
    17  H    0.000000   0.000000   0.000000   0.000000   0.000856   0.000000
    18  H    0.000000   0.000000   0.000000   0.000000   0.000000   0.000537
    19  H    0.000000   0.000000   0.000000   0.000000   0.000000   0.000000
    20  O    0.000000   0.000000   0.000000   0.000000   0.000000   0.000000
    21  O    0.000000   0.000000   0.000000   0.000000   0.000000   0.000000
    22  O    0.000000   0.000000   0.000000   0.000000   0.000000   0.000000
              19         20         21         22
     1  C    0.000000   0.000000   0.000000   0.000000
     2  C    0.000000   0.000000   0.000000   0.000000
     3  C    0.000000   0.000000   0.000000   0.000000
     4  C    0.000000   0.000000   0.000000   0.000000
     5  C    0.000000   0.000000   0.000000   0.000000
     6  C    0.000000   0.000000   0.000000   0.000000
     7  H    0.000000   0.000000   0.000000   0.000000
     8  H    0.000000   0.000000   0.000000   0.000000
     9  H    0.000000   0.000000   0.000000   0.000000
    10  H    0.000000   0.000000   0.000000   0.000000
    11  H    0.000000   0.000000   0.000000   0.000000
    12  H    0.000000   0.000000   0.000000   0.000000
    13  C    0.000000   0.000000   0.000000   0.000000
    14  H    0.000000   0.000000   0.000000   0.000000
    15  H    0.000000   0.000000   0.000000   0.000000
    16  H    0.000000   0.000000   0.000000   0.000000
    17  H    0.000000   0.000000   0.000000   0.000000
    18  H    0.000000   0.000000   0.000000   0.000000
    19  H    0.000542   0.000000   0.000000   0.000000
    20  O    0.000000  -0.000017   0.000000   0.000000
    21  O    0.000000   0.000000   1.049074   0.000000
    22  O    0.000000   0.000000   0.000000  -0.136022
 Mulliken charges and spin densities:
               1          2
     1  C   -0.212747  -0.003224
     2  C   -0.268357   0.044842
     3  C   -0.244079  -0.949020
     4  C    0.567503   0.094040
     5  C    0.405392  -0.000052
     6  C   -0.447013   0.000981
     7  H    0.149572   0.000212
     8  H    0.152136   0.000208
     9  H    0.158690  -0.032650
    10  H    0.153648  -0.027896
    11  H    0.178689   0.030180
    12  H    0.286070  -0.074709
    13  C   -0.624341   0.002156
    14  H    0.089953   0.000024
    15  H    0.171941  -0.000030
    16  H    0.170891  -0.000029
    17  H    0.191560   0.000856
    18  H    0.198334   0.000537
    19  H    0.184607   0.000542
    20  O   -0.451707  -0.000017
    21  O   -0.310226   1.049074
    22  O   -0.500517  -0.136022
 Sum of Mulliken charges =   0.00000   0.00000
 Mulliken charges and spin densities with hydrogens summed into heavy atoms:
               1          2
     1  C    0.088962  -0.002805
     2  C    0.043981  -0.015705
     3  C   -0.065390  -0.918840
     4  C    0.567503   0.094040
     5  C    0.495345  -0.000029
     6  C   -0.104181   0.000923
    13  C   -0.049840   0.004091
    20  O   -0.451707  -0.000017
    21  O   -0.024156   0.974364
    22  O   -0.500517  -0.136022
 APT charges:
               1
     1  C   -0.143829
     2  C   -0.368970
     3  C   -0.354557
     4  C    1.230691
     5  C    0.893599
     6  C   -0.689633
     7  H    0.139174
     8  H    0.142166
     9  H    0.155829
    10  H    0.150799
    11  H    0.180477
    12  H    0.329484
    13  C   -0.936306
    14  H    0.006311
    15  H    0.189307
    16  H    0.188113
    17  H    0.232194
    18  H    0.237465
    19  H    0.224791
    20  O   -0.677534
    21  O   -0.257715
    22  O   -0.872858
 Sum of APT charges =  -0.00100
 APT charges with hydrogens summed into heavy atoms:
               1
     1  C    0.137511
     2  C   -0.062341
     3  C   -0.174080
     4  C    1.230691
     5  C    0.899910
     6  C   -0.312213
    13  C   -0.241857
    20  O   -0.677534
    21  O    0.071769
    22  O   -0.872858
 Charge=              0.0000 electrons
 Dipole moment (field-independent basis, Debye):
    X=             -3.7733    Y=             -3.3990    Z=             -0.1881  Tot=              5.0820
 N-N= 3.158901544502D+02 E-N=-5.595536584677D+02  KE=-3.397792629658D+01
  Exact polarizability:  52.779  17.213  54.099  -8.274  -0.547  73.056
 Approx polarizability:  37.158  14.520  41.296  -3.156  -0.019  42.802
 Leave Link  601 at Tue Feb 16 09:45:57 2021, MaxMem=    33554432 cpu:         0.0
 (Enter /cm/shared/apps/Gaussian09/g09/l701.exe)
 Compute integral second derivatives.
 ... and contract with generalized density number  0.
 Leave Link  701 at Tue Feb 16 09:45:57 2021, MaxMem=    33554432 cpu:         0.1
 (Enter /cm/shared/apps/Gaussian09/g09/l702.exe)
 L702 exits ... SP integral derivatives will be done elsewhere.
 Leave Link  702 at Tue Feb 16 09:45:57 2021, MaxMem=    33554432 cpu:         0.0
 (Enter /cm/shared/apps/Gaussian09/g09/l703.exe)
 Compute integral second derivatives, UseDBF=F ICtDFT=           0.
 Integral derivatives from FoFJK, PRISM(SPDF).
 Calling FoFJK, ICntrl=    100127 FMM=F ISym2X=0 I1Cent= 0 IOpClX= 1 NMat=1 NMatS=1 NMatT=0.
 FoFJK:  IHMeth=40 ICntrl=  100127 DoSepK=F KAlg= 0 I1Cent=   0 FoldK=F
 IRaf=         0 NMat=   1 IRICut=       1 DoRegI=T DoRafI=F ISym2E= 0.
 FoFCou: FMM=F IPFlag=           0 FMFlag=      100000 FMFlg1=         800
         NFxFlg=           0 DoJE=F BraDBF=F KetDBF=F FulRan=T
         wScrn=  0.000000 ICntrl=  100127 IOpCl=  1 I1Cent=           0 NGrid=           0
         NMat0=    1 NMatS0=      1 NMatT0=    0 NMatD0=    1 NMtDS0=    0 NMtDT0=    0
 Symmetry not used in FoFCou.
 Leave Link  703 at Tue Feb 16 09:45:57 2021, MaxMem=    33554432 cpu:         0.0
 (Enter /cm/shared/apps/Gaussian09/g09/l716.exe)
 Dipole        =-1.48451775D+00-1.33728118D+00-7.40078923D-02
 Polarizability= 5.27794719D+01 1.72128518D+01 5.40990252D+01
                -8.27357821D+00-5.47268638D-01 7.30562760D+01
 HyperPolar    = 1.55783608D+02-7.47940114D+01 6.19285355D+00
                -4.68948699D+01-1.37303973D+01 2.50186352D+00
                 1.33249279D+00 5.74674677D+01-8.65899641D+00
                -3.09245698D+02
 -------------------------------------------------------------------
 Center     Atomic                   Forces (Hartrees/Bohr)
 Number     Number              X              Y              Z
 -------------------------------------------------------------------
      1        6          -0.000000077   -0.000000325    0.000000325
      2        6          -0.000000216   -0.000000233   -0.000000072
      3        6           0.000000340    0.000000023    0.000000031
      4        6           0.000000187    0.000000449   -0.000000464
      5        6           0.000000590    0.000000923    0.000000304
      6        6           0.000000501    0.000000404    0.000000552
      7        1          -0.000000334    0.000000023   -0.000000138
      8        1           0.000000015   -0.000000077   -0.000000008
      9        1          -0.000000012    0.000000295    0.000000081
     10        1           0.000000232   -0.000000004    0.000000060
     11        1          -0.000000122   -0.000000182   -0.000000088
     12        1           0.000000028   -0.000000062    0.000000076
     13        6          -0.000000134   -0.000000436    0.000000287
     14        1           0.000000580    0.000000666   -0.000000230
     15        1           0.000000100   -0.000000049    0.000000076
     16        1          -0.000000101    0.000000447    0.000000072
     17        1          -0.000000043    0.000000390   -0.000000106
     18        1           0.000000048    0.000000062   -0.000000103
     19        1           0.000000287    0.000000005    0.000000023
     20        8          -0.000001359   -0.000002017   -0.000000959
     21        8          -0.000000075    0.000000086   -0.000000069
     22        8          -0.000000436   -0.000000386    0.000000348
 -------------------------------------------------------------------
 Cartesian Forces:  Max     0.000002017 RMS     0.000000430
 Leave Link  716 at Tue Feb 16 09:45:57 2021, MaxMem=    33554432 cpu:         0.0
 (Enter /cm/shared/apps/Gaussian09/g09/l103.exe)

 GradGradGradGradGradGradGradGradGradGradGradGradGradGradGradGradGradGrad
 Berny optimization.
 Search for a saddle point.
 Step number   1 out of a maximum of  100
 All quantities printed in internal units (Hartrees-Bohrs-Radians)
 Swapping is turned off.
 Second derivative matrix not updated -- analytic derivatives used.
 ITU=  0
     Eigenvalues ---   -0.00021   0.00003   0.00011   0.00016   0.00032
     Eigenvalues ---    0.00059   0.00072   0.00087   0.00142   0.00181
     Eigenvalues ---    0.00595   0.00755   0.01552   0.01861   0.01991
     Eigenvalues ---    0.02811   0.03252   0.03332   0.03832   0.04072
     Eigenvalues ---    0.04164   0.05349   0.05618   0.05807   0.05948
     Eigenvalues ---    0.05990   0.06755   0.07077   0.07223   0.07878
     Eigenvalues ---    0.08246   0.11462   0.12019   0.13298   0.14123
     Eigenvalues ---    0.15583   0.18049   0.18489   0.23306   0.24343
     Eigenvalues ---    0.25153   0.29730   0.37480   0.45039   0.46148
     Eigenvalues ---    0.48102   0.51594   0.52138   0.55878   0.57041
     Eigenvalues ---    0.60186   0.61145   0.62494   0.65064   0.69198
     Eigenvalues ---    0.70912   0.77399   0.89394   1.48415   1.67359
 Eigenvectors required to have negative eigenvalues:
                          Z21       Y21       X17       Y11       Y12
   1                    0.43537   0.34506  -0.30204  -0.27647   0.25546
                          Z12       X18       X11       X13       Y22
   1                    0.24602  -0.22252   0.18917  -0.18835  -0.16936
 RFO step:  Lambda0=3.990822701D-13 Lambda= 0.00000000D+00.
 Linear search not attempted -- option 19 set.
 TrRot= -0.000003  0.000004 -0.000003  0.000003  0.000003  0.000003
 Variable       Old X    -DE/DX   Delta X   Delta X   Delta X     New X
                                 (Linear)    (Quad)   (Total)
    X1       -0.53632   0.00000   0.00000   0.00002   0.00002  -0.53630
    Y1        0.46421   0.00000   0.00000  -0.00004  -0.00004   0.46417
    Z1        2.88443   0.00000   0.00000   0.00003   0.00003   2.88446
    X2       -0.59922   0.00000   0.00000   0.00003   0.00002  -0.59919
    Y2       -0.18531   0.00000   0.00000  -0.00004  -0.00004  -0.18536
    Z2        0.05896   0.00000   0.00000   0.00003   0.00003   0.05898
    X3        1.21928   0.00000   0.00000   0.00011   0.00009   1.21937
    Y3        1.30737   0.00000   0.00000  -0.00012  -0.00011   1.30726
    Z3       -1.42334   0.00000   0.00000   0.00005   0.00004  -1.42329
    X4        1.44372   0.00000   0.00000   0.00002   0.00000   1.44372
    Y4        1.13506   0.00000   0.00000  -0.00001   0.00001   1.13506
    Z4       -4.18146   0.00000   0.00000   0.00004   0.00003  -4.18143
    X5       -2.45469   0.00000   0.00000  -0.00009  -0.00006  -2.45475
    Y5       -0.43961   0.00000   0.00000   0.00006   0.00005  -0.43956
    Z5        7.16422   0.00000   0.00000   0.00000   0.00001   7.16422
    X6       -2.40227   0.00000   0.00000  -0.00010  -0.00008  -2.40235
    Y6       -1.15085   0.00000   0.00000   0.00007   0.00006  -1.15079
    Z6        4.39512   0.00000   0.00000   0.00000   0.00001   4.39512
    X7        1.39851   0.00000   0.00000  -0.00001   0.00000   1.39851
    Y7        0.20517   0.00000   0.00000  -0.00015  -0.00014   0.20503
    Z7        3.65076   0.00000   0.00000   0.00006   0.00005   3.65081
    X8       -0.96787   0.00000   0.00000   0.00013   0.00012  -0.96775
    Y8        2.49636   0.00000   0.00000  -0.00002  -0.00002   2.49635
    Z8        3.17812   0.00000   0.00000   0.00002   0.00002   3.17814
    X9       -0.19742   0.00000   0.00000  -0.00004  -0.00004  -0.19746
    Y9       -2.23708   0.00000   0.00000  -0.00006  -0.00005  -2.23713
    Z9       -0.21523   0.00000   0.00000   0.00004   0.00003  -0.21520
   X10       -2.54387   0.00000   0.00000   0.00005   0.00004  -2.54383
   Y10        0.09239   0.00000   0.00000   0.00003   0.00002   0.09240
   Z10       -0.69800   0.00000   0.00000   0.00001   0.00001  -0.69799
   X11        2.50380   0.00000   0.00000   0.00022   0.00020   2.50399
   Y11        2.59469   0.00000   0.00000  -0.00025  -0.00023   2.59447
   Z11       -0.47599   0.00000   0.00000   0.00007   0.00006  -0.47592
   X12        6.89252   0.00000   0.00000  -0.00008  -0.00011   6.89240
   Y12        1.84348   0.00000   0.00000   0.00017   0.00021   1.84370
   Z12       -5.37261   0.00000   0.00000  -0.00016  -0.00019  -5.37281
   X13       -0.14266   0.00000   0.00000   0.00010   0.00008  -0.14258
   Y13       -0.75639   0.00000   0.00000  -0.00007  -0.00007  -0.75646
   Z13       -5.57919   0.00000   0.00000   0.00003   0.00003  -5.57917
   X14       -3.67748   0.00000   0.00000  -0.00023  -0.00020  -3.67768
   Y14       -1.64156   0.00000   0.00000   0.00018   0.00016  -1.64140
   Z14        8.34941   0.00000   0.00000  -0.00003  -0.00002   8.34939
   X15       -4.33765   0.00000   0.00000  -0.00008  -0.00007  -4.33772
   Y15       -0.96028   0.00000   0.00000   0.00020   0.00018  -0.96010
   Z15        3.60872   0.00000   0.00000  -0.00002  -0.00001   3.60871
   X16       -1.92463   0.00000   0.00000  -0.00023  -0.00020  -1.92483
   Y16       -3.18369   0.00000   0.00000   0.00004   0.00004  -3.18365
   Z16        4.20826   0.00000   0.00000   0.00000   0.00000   4.20826
   X17        0.33647   0.00000   0.00000   0.00026   0.00025   0.33673
   Y17       -2.69932   0.00000   0.00000  -0.00005  -0.00005  -2.69936
   Z17       -5.02737   0.00000   0.00000  -0.00005  -0.00005  -5.02743
   X18        0.17875   0.00000   0.00000   0.00002   0.00000   0.17874
   Y18       -0.61601   0.00000   0.00000   0.00002   0.00003  -0.61598
   Z18       -7.63145   0.00000   0.00000   0.00002   0.00002  -7.63143
   X19       -2.16885   0.00000   0.00000   0.00009   0.00008  -2.16877
   Y19       -0.48098   0.00000   0.00000  -0.00022  -0.00023  -0.48121
   Z19       -5.24977   0.00000   0.00000   0.00011   0.00011  -5.24966
   X20       -1.27177   0.00000   0.00000   0.00008   0.00009  -1.27167
   Y20        1.30412   0.00000   0.00000  -0.00008  -0.00008   1.30404
   Z20        8.04716   0.00000   0.00000   0.00004   0.00004   8.04720
   X21        6.35020   0.00000   0.00000  -0.00007  -0.00009   6.35011
   Y21        0.37818   0.00000   0.00000   0.00011   0.00015   0.37833
   Z21       -4.37218   0.00000   0.00000  -0.00024  -0.00027  -4.37244
   X22        2.90146   0.00000   0.00000  -0.00011  -0.00015   2.90132
   Y22        2.53005   0.00000   0.00000   0.00013   0.00015   2.53019
   Z22       -5.31856   0.00000   0.00000   0.00003   0.00002  -5.31854
         Item               Value     Threshold  Converged?
 Maximum Force            0.000002     0.000450     YES
 RMS     Force            0.000000     0.000300     YES
 Maximum Displacement     0.000269     0.001800     YES
 RMS     Displacement     0.000106     0.001200     YES
 Predicted change in Energy=-4.897473D-11
 Optimization completed.
    -- Stationary point found.
 Lowest energy point so far.  Saving SCF results.
 GradGradGradGradGradGradGradGradGradGradGradGradGradGradGradGradGradGrad

 Largest change from initial coordinates is atom    0       0.000 Angstoms.
 Leave Link  103 at Tue Feb 16 09:45:57 2021, MaxMem=    33554432 cpu:         0.0
 (Enter /cm/shared/apps/Gaussian09/g09/l202.exe)
                          Input orientation:                          
 ---------------------------------------------------------------------
 Center     Atomic      Atomic             Coordinates (Angstroms)
 Number     Number       Type             X           Y           Z
 ---------------------------------------------------------------------
      1          6           0       -0.283810    0.245649    1.526376
      2          6           0       -0.317091   -0.098064    0.031198
      3          6           0        0.645214    0.691830   -0.753197
      4          6           0        0.763986    0.600646   -2.212734
      5          6           0       -1.298966   -0.232630    3.791140
      6          6           0       -1.271226   -0.609006    2.325795
      7          1           0        0.740061    0.108571    1.931899
      8          1           0       -0.512177    1.321019    1.681791
      9          1           0       -0.104472   -1.183810   -0.113896
     10          1           0       -1.346157    0.048889   -0.369367
     11          1           0        1.324952    1.373053   -0.251881
     12          1           0        3.647362    0.975528   -2.843065
     13          6           0       -0.075494   -0.400266   -2.952382
     14          1           0       -1.946041   -0.868677    4.418319
     15          1           0       -2.295385   -0.508159    1.909651
     16          1           0       -1.018470   -1.684734    2.226913
     17          1           0        0.178053   -1.428418   -2.660371
     18          1           0        0.094590   -0.325977   -4.038387
     19          1           0       -1.147704   -0.254523   -2.778059
     20          8           0       -0.672991    0.690109    4.258375
     21          8           0        3.360380    0.200124   -2.313656
     22          8           0        1.535388    1.338843   -2.814463
 ---------------------------------------------------------------------
                    Distance matrix (angstroms):
                    1          2          3          4          5
     1  C    0.000000
     2  C    1.534537   0.000000
     3  C    2.501723   1.471475   0.000000
     4  C    3.899339   2.586920   1.467198   0.000000
     5  C    2.527538   3.888361   5.028465   6.402861   0.000000
     6  C    1.531175   2.537048   3.852935   5.118944   1.513164
     7  H    1.109753   2.184704   2.749350   4.173810   2.780436
     8  H    1.110282   2.185478   2.768501   4.161112   2.735364
     9  H    2.183119   1.115842   2.118669   2.888533   4.192954
    10  H    2.182003   1.114013   2.127500   2.855721   4.170288
    11  H    2.649784   2.222751   1.085093   2.180881   5.080274
    12  H    5.922740   5.013070   3.668913   2.975182   8.362923
    13  C    4.529887   3.008562   2.559005   1.501210   6.855660
    14  H    3.516827   4.742800   5.991190   7.312593   1.103003
    15  H    2.182100   2.758697   4.144618   5.251977   2.146804
    16  H    2.181022   2.798324   4.158961   5.301941   2.152694
    17  H    4.532623   3.042951   2.889810   2.158888   6.725585
    18  H    5.606829   4.096700   3.483043   2.154003   7.953125
    19  H    4.418670   2.933653   2.865346   2.169208   6.570977
    20  O    2.795143   4.314731   5.182038   6.629341   1.208967
    21  O    5.294151   4.371619   3.170005   2.629043   7.691899
    22  O    4.831919   3.687027   2.336633   1.225591   7.357790
                    6          7          8          9         10
     6  C    0.000000
     7  H    2.171485   0.000000
     8  H    2.171611   1.760876   0.000000
     9  H    2.764744   2.562960   3.108840   0.000000
    10  H    2.775309   3.106717   2.553642   1.768218   0.000000
    11  H    4.160903   2.590349   2.667740   2.932549   2.983628
    12  H    7.308924   5.657234   6.155928   5.117359   5.649166
    13  C    5.415949   4.977976   4.962769   2.944789   2.913467
    14  H    2.213924   3.788462   3.786729   4.902210   4.911591
    15  H    1.110066   3.097545   2.564692   3.057997   2.530861
    16  H    1.109439   2.528914   3.096456   2.562363   3.139028
    17  H    5.256776   4.875155   5.185575   2.573750   3.123196
    18  H    6.515241   6.020779   5.983410   4.022081   3.959543
    19  H    5.117640   5.087160   4.772472   3.008267   2.435824
    20  O    2.404257   2.783414   2.657573   4.790777   4.720202
    21  O    6.605374   4.989909   5.675976   4.331214   5.094568
    22  O    6.171989   4.967300   4.940561   4.043016   3.993216
                   11         12         13         14         15
    11  H    0.000000
    12  H    3.502263   0.000000
    13  C    3.521167   3.970443   0.000000
    14  H    6.126624   9.349596   7.618766   0.000000
    15  H    4.617144   7.752798   5.345926   2.558404   0.000000
    16  H    4.581060   7.385909   5.418871   2.515670   1.765077
    17  H    3.868390   4.224741   1.098478   7.411676   5.277298
    18  H    4.328755   3.967984   1.101751   8.716340   6.412825
    19  H    3.891607   4.950748   1.096022   7.266525   4.832818
    20  O    4.980020   8.317293   7.317167   2.018924   3.095886
    21  O    3.125643   0.981776   3.545937   8.638283   7.094058
    22  O    2.571435   2.143187   2.374545   8.325060   6.356374
                   16         17         18         19         20
    16  H    0.000000
    17  H    5.038145   0.000000
    18  H    6.506851   1.766712   0.000000
    19  H    5.206914   1.774686   1.771109   0.000000
    20  O    3.144213   7.285704   8.393919   7.115412   0.000000
    21  O    6.583600   3.591597   3.730531   4.554689   7.726562
    22  O    6.409343   3.086071   2.519030   3.120757   7.437932
                   21         22
    21  O    0.000000
    22  O    2.208639   0.000000
 Symmetry turned off by external request.
 Stoichiometry    C7H12O3
 Framework group  C1[X(C7H12O3)]
 Deg. of freedom    60
 Full point group                 C1      NOp   1
 Rotational constants (GHZ):      2.8108852      0.4113897      0.3815281
 Leave Link  202 at Tue Feb 16 09:45:57 2021, MaxMem=    33554432 cpu:         0.0
 (Enter /cm/shared/apps/Gaussian09/g09/l716.exe)
 Dipole        =-1.48451775D+00-1.33728118D+00-7.40078923D-02
 Polarizability= 5.27794719D+01 1.72128518D+01 5.40990252D+01
                -8.27357821D+00-5.47268638D-01 7.30562760D+01
 HyperPolar    = 1.55783608D+02-7.47940114D+01 6.19285355D+00
                -4.68948699D+01-1.37303973D+01 2.50186352D+00
                 1.33249279D+00 5.74674677D+01-8.65899641D+00
                -3.09245698D+02
 Full mass-weighted force constant matrix:
 Low frequencies ---  -29.3349   -7.2192   -4.7603   -1.6024    1.6382    1.7589
 Low frequencies ---    3.3682   12.7204   23.1338
 ******    1 imaginary frequencies (negative Signs) ****** 
 Diagonal vibrational polarizability:
      753.9307394     389.9605070     142.9157336
 Harmonic frequencies (cm**-1), IR intensities (KM/Mole), Raman scattering
 activities (A**4/AMU), depolarization ratios for plane and unpolarized
 incident light, reduced masses (AMU), force constants (mDyne/A),
 and normal coordinates:
                      1                      2                      3
                      A                      A                      A
 Frequencies --    -29.2811                12.5021                23.0583
 Red. masses --      4.2937                 4.2576                 4.6792
 Frc consts  --      0.0022                 0.0004                 0.0015
 IR Inten    --      1.7588                 5.4238                 0.4013
  Atom  AN      X      Y      Z        X      Y      Z        X      Y      Z
     1   6    -0.06   0.07   0.02     0.07  -0.05   0.02    -0.05   0.09  -0.05
     2   6     0.02   0.04   0.02     0.11  -0.08   0.03    -0.06   0.09  -0.05
     3   6    -0.09   0.17   0.03     0.05  -0.02   0.02    -0.16   0.18  -0.08
     4   6     0.05   0.07   0.05    -0.02   0.05   0.01    -0.03   0.03  -0.06
     5   6    -0.01  -0.05   0.01     0.03  -0.03   0.00     0.15  -0.09  -0.01
     6   6     0.02  -0.03   0.01     0.17  -0.15   0.04     0.11  -0.06  -0.02
     7   1    -0.05   0.20   0.04     0.09   0.07   0.02    -0.01   0.25  -0.10
     8   1    -0.19   0.04   0.00    -0.05  -0.07   0.00    -0.20   0.06  -0.04
     9   1     0.17   0.07   0.05     0.21  -0.06   0.04     0.04   0.11  -0.06
    10   1     0.00  -0.11   0.00     0.10  -0.18   0.02    -0.08   0.00  -0.03
    11   1    -0.27   0.35   0.02     0.05  -0.02   0.02    -0.31   0.36  -0.11
    12   1    -0.03  -0.17  -0.17     0.01  -0.10  -0.02     0.04  -0.19   0.27
    13   6     0.22  -0.09   0.05    -0.14   0.17  -0.02    -0.01  -0.01  -0.04
    14   1     0.01  -0.08   0.00     0.19  -0.16   0.04     0.26  -0.19   0.02
    15   1     0.01  -0.13   0.01     0.17  -0.35  -0.02     0.07  -0.19   0.04
    16   1     0.13  -0.01   0.01     0.35  -0.11   0.13     0.25  -0.02  -0.05
    17   1     0.37  -0.04   0.11    -0.26   0.13  -0.06     0.00   0.01   0.02
    18   1     0.26  -0.11   0.06    -0.15   0.20  -0.02     0.02  -0.06  -0.03
    19   1     0.19  -0.24   0.00    -0.12   0.29   0.01    -0.01  -0.01  -0.07
    20   8    -0.06  -0.02   0.03    -0.25   0.19  -0.06     0.05  -0.02  -0.02
    21   8    -0.10  -0.20  -0.24    -0.02  -0.10  -0.03    -0.08  -0.11   0.33
    22   8     0.01   0.11   0.06     0.03   0.01   0.02     0.05  -0.06  -0.07
                      4                      5                      6
                      A                      A                      A
 Frequencies --     40.2480                47.4914                83.7780
 Red. masses --      1.8551                 5.9338                 2.4187
 Frc consts  --      0.0018                 0.0079                 0.0100
 IR Inten    --      1.9317                 4.0231                 6.0246
  Atom  AN      X      Y      Z        X      Y      Z        X      Y      Z
     1   6     0.11  -0.10   0.02     0.11  -0.09  -0.01     0.15  -0.13   0.04
     2   6    -0.12   0.12  -0.02     0.14  -0.11  -0.01     0.07  -0.03   0.02
     3   6    -0.01   0.01   0.00     0.14  -0.10   0.00    -0.12   0.16  -0.02
     4   6     0.01  -0.01   0.00     0.04   0.03  -0.02    -0.05   0.03  -0.01
     5   6     0.05  -0.04   0.01    -0.05   0.10  -0.05    -0.13   0.09  -0.03
     6   6     0.02  -0.02   0.00    -0.01   0.03  -0.04     0.01  -0.01  -0.01
     7   1     0.12  -0.37  -0.11     0.08  -0.19   0.03     0.13  -0.31   0.01
     8   1     0.34  -0.07   0.21     0.22  -0.06  -0.04     0.32  -0.10   0.11
     9   1    -0.41   0.09  -0.20     0.17  -0.11   0.00     0.20   0.00  -0.06
    10   1    -0.12   0.45   0.09     0.14  -0.13  -0.02     0.02  -0.14   0.11
    11   1     0.05  -0.05   0.01     0.22  -0.19   0.02    -0.32   0.39  -0.07
    12   1     0.00  -0.01  -0.01    -0.07  -0.14   0.24    -0.01   0.00  -0.03
    13   6     0.05  -0.04   0.01     0.13  -0.02  -0.04    -0.04   0.00   0.03
    14   1     0.20  -0.16   0.05    -0.19   0.22  -0.07    -0.38   0.28  -0.10
    15   1     0.02   0.12   0.02     0.03   0.10  -0.10     0.06   0.01  -0.12
    16   1    -0.11  -0.04  -0.04    -0.10   0.00   0.02    -0.03  -0.04   0.10
    17   1     0.16  -0.03  -0.05     0.31  -0.01  -0.14     0.06   0.01  -0.01
    18   1    -0.01   0.01   0.00     0.03   0.09  -0.04    -0.12   0.03   0.02
    19   1     0.05  -0.15   0.07     0.12  -0.20   0.06    -0.04  -0.08   0.11
    20   8    -0.08   0.06  -0.02     0.05   0.02  -0.05     0.02  -0.03   0.01
    21   8    -0.02   0.00   0.00    -0.39  -0.05   0.19     0.06  -0.01   0.01
    22   8     0.00   0.01   0.00    -0.10   0.19  -0.01     0.01  -0.04  -0.03
                      7                      8                      9
                      A                      A                      A
 Frequencies --     89.2094                93.1429               102.6105
 Red. masses --      3.6419                 1.1383                 1.7333
 Frc consts  --      0.0171                 0.0058                 0.0108
 IR Inten    --      1.8878                 0.9941                 1.5991
  Atom  AN      X      Y      Z        X      Y      Z        X      Y      Z
     1   6    -0.10  -0.11  -0.03    -0.01   0.05   0.00     0.02  -0.02   0.00
     2   6    -0.12  -0.13  -0.03     0.02   0.03   0.01     0.08  -0.09   0.01
     3   6    -0.14  -0.06   0.02     0.03   0.00   0.00    -0.03   0.04  -0.01
     4   6    -0.02   0.02   0.02     0.00   0.00  -0.01    -0.01   0.01   0.00
     5   6     0.06   0.09   0.03    -0.02  -0.01   0.00     0.10  -0.08   0.02
     6   6    -0.04  -0.07   0.07     0.02   0.01  -0.01    -0.12   0.11  -0.03
     7   1    -0.08  -0.08  -0.07    -0.01   0.11   0.02    -0.02  -0.10   0.07
     8   1    -0.10  -0.10  -0.06    -0.07   0.04  -0.02     0.10   0.00  -0.05
     9   1    -0.08  -0.12  -0.04     0.01   0.02   0.03     0.26  -0.06   0.06
    10   1    -0.13  -0.16  -0.02     0.02   0.02  -0.01     0.07  -0.26   0.00
    11   1    -0.22  -0.02   0.07     0.07  -0.04  -0.01    -0.13   0.14  -0.02
    12   1     0.02   0.09   0.14     0.00  -0.03  -0.04    -0.01   0.00   0.00
    13   6     0.06   0.06  -0.12    -0.03   0.00   0.01    -0.01   0.01   0.00
    14   1     0.08   0.19   0.15    -0.03  -0.02  -0.03     0.40  -0.32   0.09
    15   1    -0.07  -0.13   0.12     0.02  -0.03  -0.02    -0.14   0.44   0.09
    16   1    -0.03  -0.07   0.16     0.06   0.02  -0.01    -0.41   0.06  -0.22
    17   1     0.31   0.04  -0.41     0.39  -0.01  -0.38     0.05   0.01  -0.05
    18   1    -0.09   0.36  -0.12    -0.44   0.35  -0.03    -0.06   0.05  -0.01
    19   1     0.06  -0.21   0.06     0.00  -0.37   0.45    -0.01  -0.05   0.06
    20   8     0.14   0.12  -0.12    -0.02  -0.03   0.03    -0.04   0.03   0.00
    21   8     0.07  -0.02   0.00     0.01   0.00   0.00     0.01   0.00   0.01
    22   8     0.04   0.06   0.15     0.00  -0.03  -0.03     0.00   0.00   0.00
                     10                     11                     12
                      A                      A                      A
 Frequencies --    164.1081               170.5766               207.9868
 Red. masses --      1.5100                 2.1339                 6.9407
 Frc consts  --      0.0240                 0.0366                 0.1769
 IR Inten    --     43.8879                65.0130                 2.0246
  Atom  AN      X      Y      Z        X      Y      Z        X      Y      Z
     1   6     0.03   0.02   0.00    -0.03  -0.01   0.00     0.02   0.03  -0.01
     2   6     0.00  -0.01   0.00     0.02   0.04   0.01     0.02   0.01   0.00
     3   6    -0.03  -0.03  -0.04     0.05   0.05   0.06     0.06  -0.05   0.00
     4   6    -0.01  -0.02  -0.05     0.01   0.01   0.06    -0.14   0.10  -0.04
     5   6    -0.01   0.01   0.03     0.01  -0.02  -0.06     0.00  -0.01  -0.03
     6   6     0.04   0.04   0.02    -0.04  -0.05  -0.05     0.02   0.01  -0.03
     7   1     0.04   0.01  -0.02    -0.04   0.00   0.04     0.02   0.04   0.00
     8   1     0.05   0.02  -0.02    -0.06  -0.02   0.03     0.01   0.03  -0.02
     9   1    -0.01  -0.01   0.02     0.02   0.04  -0.02    -0.02   0.00   0.01
    10   1    -0.01  -0.02   0.02     0.04   0.06  -0.03     0.02   0.04  -0.01
    11   1    -0.03  -0.02  -0.06     0.05   0.04   0.06     0.22  -0.22   0.00
    12   1     0.08   0.51   0.80     0.07   0.46   0.71    -0.62  -0.01  -0.08
    13   6     0.02   0.00  -0.10    -0.05  -0.02   0.17     0.00  -0.06   0.03
    14   1    -0.04  -0.02  -0.02     0.06   0.02   0.01     0.00  -0.02  -0.04
    15   1     0.04   0.04   0.01    -0.04  -0.05  -0.04     0.02   0.01  -0.04
    16   1     0.04   0.04   0.03    -0.04  -0.05  -0.07     0.03   0.02  -0.04
    17   1     0.01  -0.01  -0.11    -0.02  -0.01   0.19     0.08  -0.01   0.16
[...]
 0.00000747,0.00007699,0.00020490,-0.00001237,0.05867624,0.15287409,-0.
 00003194,0.00000692,-0.00002187,-0.00013255,-0.00015901,-0.00003427,-0
 .00023591,0.00012020,-0.00037039,0.00109508,0.00084856,0.00067077,0.00
 003229,-0.00000283,-0.00006604,-0.00006987,-0.00003166,0.00004025,0.00
 004534,0.00001511,-0.00001662,0.00003121,-0.00000444,-0.00001130,0.000
 02437,0.00002668,0.00003392,0.00003569,0.00000826,0.00003028,0.0003011
 9,0.00007931,-0.00005688,-0.04106623,-0.10399349,0.07233209,0.00037508
 ,0.00010954,0.00004470,0.00201498,0.00079938,0.00066131,0.00606169,-0.
 00905233,-0.00860634,-0.11208589,-0.04480800,-0.04344228,-0.00016307,-
 0.00013665,-0.00019886,0.00038965,0.00012691,0.00016477,-0.00015267,-0
 .00002064,0.00011935,-0.00014649,-0.00000023,0.00003654,-0.00069983,-0
 .00003696,-0.00044977,-0.00066047,-0.00010758,-0.00068121,0.00004016,0
 .00033858,0.00039288,0.00114488,0.00007553,0.00006268,0.42581242,0.000
 08367,0.00030732,0.00002029,0.00060150,0.00208644,-0.00029395,-0.01044
 609,0.00039912,-0.01500481,-0.04312077,-0.12796696,-0.05158909,-0.0000
 8446,-0.00020457,-0.00003685,0.00015823,0.00044111,-0.00001116,0.00001
 667,-0.00014456,0.00008582,-0.00006907,-0.00010150,0.00014334,0.000073
 60,-0.00090339,-0.00070313,0.00000862,-0.00078318,-0.00030592,0.000547
 57,0.00011611,-0.00010890,0.00080190,-0.00033001,-0.00024093,0.0383771
 5,0.42632120,-0.00021519,-0.00024294,0.00001940,0.00010764,-0.00089229
 ,-0.00391807,-0.01545608,-0.02220605,-0.02668380,-0.04207435,-0.050744
 52,-0.11291140,0.00005849,0.00039200,0.00101749,0.00030495,0.00007470,
 -0.00083112,0.00018688,-0.00006718,0.00010485,-0.00011017,0.00023575,0
 .00004023,0.00003207,-0.00026067,0.00018201,-0.00034930,0.00017633,-0.
 00015318,0.00106997,0.00073221,-0.00261712,0.00019137,-0.00013084,-0.0
 0060346,0.00891283,0.01557345,0.42627587,0.00037280,-0.00013304,-0.000
 03152,-0.00000155,0.00004906,-0.00004013,-0.00001590,-0.00000143,-0.00
 005865,-0.00001561,-0.00001967,0.00009372,-0.09892331,-0.04077153,0.05
 233987,0.00723375,-0.00729309,0.00938613,0.00001699,0.00001927,0.00003
 071,0.00005599,-0.00012391,-0.00008505,0.00000893,0.00000888,0.0000191
 6,0.00001612,-0.00000827,0.00000625,-0.00000423,-0.00001397,0.00000334
 ,-0.00000726,-0.00000413,0.00000665,-0.00001332,-0.00000572,-0.0000451
 2,0.10294381,-0.00013644,0.00015983,-0.00054485,0.00018714,0.00011575,
 -0.00015016,0.00000673,-0.00003357,-0.00010659,-0.00006152,-0.00003070
 ,0.00017389,-0.03987341,-0.08894604,0.05558559,-0.00533371,0.00809807,
 -0.00091148,-0.00013705,-0.00005571,-0.00012457,-0.00005465,-0.0000756
 3,-0.00005260,-0.00002824,0.00003178,0.00002773,0.00001570,-0.00000728
 ,0.00004397,-0.00002708,-0.00001841,-0.00001453,-0.00001937,-0.0000038
 2,0.00000489,0.00000918,-0.00001627,-0.00008218,0.08498540,0.11010149,
 -0.00034850,-0.00104645,-0.00220451,0.00048518,0.00043491,-0.00045012,
 -0.00001400,-0.00004392,-0.00020761,-0.00008238,-0.00006458,0.00026878
 ,0.05536060,0.05933081,-0.09135334,0.01708244,0.00866987,-0.02952316,-
 0.00022246,-0.00017362,-0.00008577,-0.00014225,-0.00031009,-0.00010358
 ,-0.00005876,0.00006698,0.00006231,0.00005874,-0.00005469,0.00007472,-
 0.00003411,-0.00004298,-0.00003627,-0.00002792,-0.00000788,0.00000406,
 0.00001316,0.00000188,-0.00012439,-0.06871692,-0.05950170,0.11484914,-
 0.03111978,-0.00855054,0.00219145,-0.00069426,0.00015591,0.00074245,-0
 .00002257,-0.00004619,-0.00037822,0.00002805,0.00002640,0.00044275,-0.
 00491256,-0.00474941,-0.01770113,-0.18240522,0.01600343,-0.06022624,-0
 .00142741,-0.00123830,0.00099224,0.00003467,-0.00051331,-0.00016921,-0
 .00007724,0.00005449,0.00017822,0.00014942,-0.00014591,0.00051639,-0.0
 0001012,-0.00003587,-0.00000363,-0.00002207,-0.00000433,0.00002108,-0.
 00013829,-0.00004689,-0.00017997,0.00015564,0.00026624,0.00042130,0.22
 994288,-0.01668358,0.00087613,-0.00070442,-0.00000352,-0.00018116,-0.0
 0009429,0.00002557,-0.00011875,-0.00005441,-0.00002628,0.00010178,0.00
 009920,-0.00531600,0.00478563,-0.00573363,0.01605132,-0.03295493,0.008
 26173,-0.00127198,-0.00081486,0.00094811,-0.00089150,-0.00013599,-0.00
 003394,0.00007551,0.00014977,-0.00011336,-0.00006829,0.00024333,0.0002
 2026,-0.00003921,0.00004583,0.00000221,-0.00000715,0.00001083,0.000003
 86,-0.00000991,-0.00013787,-0.00002287,0.00042795,-0.00011700,0.000021
 54,-0.01303582,0.03721039,0.01099392,0.00087786,0.00536897,0.00054302,
 -0.00001089,-0.00057508,-0.00001539,0.00002045,-0.00012772,0.00016616,
 0.00012164,-0.00009261,-0.02735053,-0.00074231,-0.02552807,-0.06343400
 ,0.00842328,-0.05849057,0.00097915,0.00105161,-0.00079181,0.00009069,-
 0.00015773,0.00033827,0.00029145,-0.00002877,-0.00007596,0.00024915,0.
 00023655,-0.00065427,0.00003445,-0.00000212,0.00008548,0.00002699,0.00
 000564,0.00000250,-0.00016753,-0.00005755,0.00008774,0.00139969,-0.000
 66246,-0.00059132,0.07602792,-0.00909717,0.07915644,0.00226058,-0.0173
 4230,0.00289741,-0.00020283,-0.00007695,-0.00006759,-0.00012477,0.0000
 1820,-0.00001307,0.00006677,-0.00002917,0.00009342,0.00391477,0.003264
 76,0.00225353,-0.04230789,0.04147628,0.00565647,0.00000294,-0.00096069
 ,0.00009742,-0.00118338,-0.00123760,0.00113191,0.00015688,-0.00004780,
 0.00033573,0.00013365,0.00000534,-0.00007821,0.00004894,-0.00004505,0.
 00000949,0.00000512,-0.00001155,0.00001486,-0.00010976,0.00001100,-0.0
 0004706,0.00002476,0.00011708,0.00017421,-0.01051972,0.02037823,-0.001
 74812,0.04835520,-0.00723947,-0.02829293,0.00882311,0.00005411,-0.0003
 8370,0.00057699,0.00002783,-0.00009186,-0.00035843,-0.00002296,0.00010
 079,0.00039637,0.00300650,-0.01762364,-0.01962555,0.04069419,-0.198614
 12,-0.01413884,-0.00051777,-0.00005647,-0.00019347,-0.00116652,-0.0011
 3915,0.00088957,-0.00014391,0.00026874,0.00029081,0.00002478,0.0000174
 7,0.00011640,-0.00004150,0.00000785,0.00001009,-0.00002780,0.00001364,
 0.00001495,-0.00002534,-0.00018500,-0.00013594,-0.00008517,0.00062231,
 0.00017215,0.00941620,-0.00760620,0.00195393,-0.04512058,0.25107712,0.
 00140190,0.01526378,0.00102494,0.00003432,0.00031694,-0.00072774,0.000
 02442,-0.00001465,-0.00003136,0.00011694,0.00014013,-0.00016741,0.0084
 1704,-0.02942034,-0.01221723,0.00598569,-0.01605685,-0.03384372,-0.000
 15134,-0.00004118,0.00040944,0.00123292,0.00085049,-0.00073988,0.00037
 873,0.00010006,-0.00065773,0.00001094,0.00023745,-0.00015503,0.0000050
 8,0.00004253,0.00007626,0.00002939,0.00001068,-0.00000161,-0.00007637,
 -0.00011050,0.00011895,-0.00062288,0.00076260,-0.00105760,-0.00432582,
 0.00709447,0.00381182,-0.01026331,0.02057911,0.04778248,-0.00008060,-0
 .00000214,-0.00001189,-0.00033851,-0.00008785,-0.00007027,-0.00084633,
 0.00046044,-0.00027521,0.00633097,-0.01469962,0.00012743,0.00003207,0.
 00002478,0.00007943,-0.00008425,-0.00001574,-0.00008799,0.00005048,-0.
 00001555,-0.00001784,0.00002037,0.00000397,-0.00000004,0.00031558,-0.0
 0004298,0.00017667,0.00006335,0.00011927,0.00023406,0.00010885,-0.0001
 1114,-0.00001582,-0.00009632,-0.00012527,-0.00001230,-0.04197503,0.039
 63251,-0.01186765,0.00000275,-0.00000478,-0.00000938,0.00002318,0.0000
 0469,0.00004478,0.00003571,-0.00000556,0.00002560,0.04535271,0.0000253
 5,-0.00006364,0.00001195,-0.00005784,-0.00051694,0.00001125,0.00001438
 ,0.00092079,0.00020041,-0.00742489,-0.03659533,-0.00406510,0.00001278,
 0.00003046,-0.00006796,-0.00003731,-0.00013489,0.00007941,-0.00003108,
 0.00004751,-0.00002075,0.00002039,-0.00000670,-0.00002876,-0.00002596,
 0.00037673,-0.00012717,0.00009003,0.00008687,-0.00011343,-0.00017999,-
 0.00010336,0.00008644,-0.00023974,0.00003814,0.00001164,0.04203751,-0.
 19486509,0.04617883,0.00000372,0.00001136,0.00001225,0.00001695,0.0000
 4441,-0.00000385,-0.00000941,0.00007717,0.00002250,-0.04475516,0.24198
 398,0.00007143,0.00012301,-0.00002366,0.00011672,0.00033960,-0.0001269
 1,-0.00103373,0.00005327,-0.00138207,0.00191727,-0.01194829,0.00761513
 ,-0.00003157,-0.00012488,-0.00024432,-0.00003301,0.00006926,0.00018745
 ,-0.00003944,-0.00002491,-0.00000491,-0.00000220,-0.00006197,0.0000224
 8,0.00007605,-0.00004096,-0.00083234,0.00017713,-0.00026441,-0.0002030
 6,0.00006926,-0.00013875,-0.00001623,0.00004778,0.00003667,0.00007312,
 -0.01192633,0.04604688,-0.04714976,0.00000940,0.00001698,0.00002806,0.
 00003270,-0.00001628,-0.00003516,0.00001819,-0.00000446,-0.00005678,0.
 01615315,-0.05278385,0.05049648,-0.00003239,0.00001763,-0.00000024,-0.
 00014825,-0.00001607,0.00012853,-0.00086024,-0.00157490,-0.00080613,0.
 00486036,-0.00291168,-0.01862154,0.00002366,0.00001575,0.00004305,-0.0
 0003611,0.00000961,-0.00004140,0.00001944,-0.00000713,0.00000148,0.000
 01162,-0.00000453,0.00000938,0.00006070,-0.00002032,0.00000572,0.00005
 367,-0.00001205,0.00006557,0.00008461,0.00000633,-0.00031709,-0.000160
 28,-0.00014265,-0.00013567,-0.04156095,-0.00251013,0.02963332,0.000000
 92,-0.00000312,-0.00000268,0.00001577,-0.00000419,0.00001764,0.0000165
 1,-0.00000600,0.00000633,0.00469384,0.00133143,-0.00411346,0.04218214,
 0.00001845,-0.00002398,0.00001046,-0.00005839,-0.00014576,0.00017967,-
 0.00151185,-0.00130932,-0.00094164,-0.00227629,0.00046019,-0.02414040,
 0.00000218,0.00002775,0.00001026,0.00000941,-0.00004449,-0.00000712,-0
 .00000894,0.00001164,0.00000167,-0.00000674,0.00001712,-0.00000691,-0.
 00002388,0.00007058,0.00003823,-0.00001045,0.00006633,-0.00001930,0.00
 003854,0.00003248,-0.00037919,-0.00006246,0.00006773,-0.00005848,-0.00
 263201,-0.03718296,0.01504623,-0.00000052,0.00000174,-0.00000136,-0.00
 000249,0.00001856,-0.00000084,-0.00000488,0.00002014,0.00000843,-0.001
 76569,-0.00539933,0.02094920,0.00673697,0.03971282,0.00001646,0.000026
 45,0.00000546,-0.00008582,-0.00003705,0.00019660,-0.00015668,-0.000226
 62,0.00016400,-0.01080881,-0.01537924,-0.02801437,-0.00001440,-0.00007
 989,-0.00020098,-0.00005096,-0.00000715,0.00017195,-0.00002253,0.00000
 297,-0.00002836,0.00001218,-0.00003241,-0.00002169,0.00000239,0.000035
 28,-0.00009274,0.00005691,-0.00002082,-0.00007445,-0.00007212,-0.00010
 513,-0.00015090,-0.00022193,0.00001528,0.00019711,0.02849067,0.0130740
 3,-0.21138363,0.00000843,0.00001527,0.00002161,0.00002685,0.00000241,-
 0.00002377,0.00000761,0.00001836,-0.00002705,0.00050438,0.00941699,-0.
 01197142,-0.02923246,-0.00886952,0.26110500,-0.00009305,0.00001955,-0.
 00000316,-0.00050910,-0.00010300,-0.00016402,0.00080936,0.00034067,0.0
 0035019,-0.03114453,-0.01170251,-0.00634658,0.00005143,0.00001429,-0.0
 0000764,-0.00015362,-0.00002339,0.00000645,0.00001171,0.00001263,-0.00
 003173,0.00005641,-0.00002529,0.00000062,0.00014281,0.00005312,-0.0001
 0719,0.00036752,-0.00002123,-0.00004303,-0.00008931,-0.00017386,0.0001
 3717,-0.00017079,-0.00004362,0.00004089,-0.21099575,0.02585724,0.02881
 595,0.00000700,0.00000284,0.00000870,0.00007198,-0.00000110,0.00005467
 ,0.00004337,0.00001027,0.00000902,-0.01055302,0.00940414,0.00045280,-0
 .00835932,0.00128047,0.00939295,0.25920651,0.00002348,-0.00006600,-0.0
 0000375,-0.00003926,-0.00037689,-0.00008404,0.00060897,-0.00081929,-0.
 00008422,-0.02044899,0.00247531,-0.00191770,0.00001379,0.00006222,0.00
 003673,-0.00000892,-0.00010848,-0.00003287,-0.00000813,0.00002260,-0.0
 0000423,-0.00001089,0.00003623,-0.00003223,0.00004428,0.00016409,0.000
 21452,-0.00000879,0.00035962,-0.00008548,-0.00013650,0.00009778,0.0000
 0351,0.00001071,0.00001263,0.00001075,0.02456441,-0.03502688,-0.004719
 97,-0.00000069,0.00000188,-0.00000489,-0.00000234,0.00004503,0.0000118
 1,-0.00000175,0.00003789,0.00003129,0.02187336,-0.00689072,-0.00151801
 ,-0.00111558,0.00430961,0.00011741,-0.02485254,0.03908485,0.00013070,0
 .00009017,-0.00003002,0.00013103,0.00021180,-0.00040817,0.00021512,-0.
 00100814,-0.00116143,-0.01418631,-0.00009096,0.00581393,-0.00004299,-0
 .00012708,-0.00027195,0.00000986,0.00002851,0.00022042,-0.00006464,-0.
 00000221,0.00001162,-0.00001410,-0.00005869,0.00000465,-0.00023950,0.0
 0012891,-0.00042459,0.00030333,-0.00022983,-0.00076376,-0.00011274,0.0
 0004092,0.00000402,0.00002338,-0.00001842,0.00006008,0.02895064,-0.004
 61177,-0.03913284,0.00000884,0.00002040,0.00003129,0.00001938,0.000000
 58,-0.00006231,-0.00000484,0.00002103,-0.00004851,-0.00494545,0.002216
 73,0.00462128,0.02197137,-0.00297775,-0.00859172,-0.03169660,0.0082515
 3,0.04089859,0.00006940,-0.00017857,0.00186382,0.00065543,0.00055944,0
 .00000222,0.00008846,0.00001067,-0.00000822,-0.00024790,-0.00020497,0.
 00003019,-0.25206730,-0.28547026,-0.13149299,0.00996376,-0.01699759,-0
 .02122611,-0.00041293,-0.00048117,-0.00118272,-0.00058264,-0.00009254,
 -0.00057031,-0.00016912,-0.00005206,0.00013102,-0.00009774,-0.00008289
 ,0.00017991,-0.00013285,-0.00008667,-0.00017648,-0.00004822,-0.0000257
 4,-0.00003524,0.00016366,0.00010319,-0.00004991,-0.01189554,-0.0400054
 6,-0.00408306,0.00082048,0.00036329,0.00192093,-0.00059292,0.00104237,
 -0.00210732,-0.00002906,-0.00002096,0.00003580,-0.00002115,-0.00000307
 ,0.00001285,-0.00004959,-0.00001520,0.00004335,0.25431090,-0.00082572,
 0.00038424,0.00189304,0.00056082,0.00082863,-0.00019702,-0.00003847,0.
 00004728,-0.00016645,-0.00033780,-0.00043577,0.00045763,-0.28837243,-0
 .47457172,-0.19319507,-0.01721179,-0.01415753,-0.04302411,-0.00012388,
 -0.00063689,-0.00042790,-0.00005571,-0.00109113,-0.00133750,-0.0001900
 3,-0.00003929,0.00024862,-0.00002710,-0.00024154,0.00020394,-0.0001041
 4,-0.00020139,-0.00017355,-0.00007376,-0.00006366,0.00000021,0.0001231
 6,0.00018262,-0.00027383,-0.03706815,-0.02990055,-0.00756301,0.0023518
 5,-0.00142283,-0.00185574,-0.00041928,0.00173812,0.00029194,-0.0000172
 4,-0.00003041,0.00009562,-0.00001136,-0.00002231,0.00005564,-0.0000194
 4,-0.00004969,0.00009830,0.34141873,0.51920246,0.00004335,-0.00076148,
 -0.00079376,0.00005685,-0.00005339,-0.00041594,-0.00008770,-0.00018338
 ,-0.00037280,-0.00049579,-0.00033384,0.00125206,-0.14179604,-0.2061601
 1,-0.15145627,-0.02161176,-0.04341975,-0.03868533,-0.00059766,0.000042
 64,-0.00000562,-0.00010533,-0.00019937,0.00023067,-0.00017670,0.000129
 71,0.00008656,0.00010705,-0.00014186,0.00015612,-0.00012748,-0.0000871
 0,-0.00001325,-0.00014081,-0.00003523,0.00005002,0.00006583,-0.0000436
 3,-0.00060421,0.00634106,0.00558846,0.01053847,0.00160147,-0.00074392,
 -0.00184991,-0.00040818,0.00079185,-0.00358004,-0.00003514,0.00005776,
 0.00013424,-0.00002087,0.00000101,0.00011617,0.00002328,-0.00000777,0.
 00015107,0.15668381,0.24509204,0.18570517,-0.00001830,0.00005333,-0.00
 001478,-0.00034362,-0.00000075,0.00001867,-0.00143330,0.00057576,0.000
 29667,-0.00529783,-0.00983857,0.00745160,-0.00001359,-0.00006956,-0.00
 014399,-0.00005460,0.00001354,0.00011433,0.00001564,-0.00001490,-0.000
 04499,0.00001526,-0.00003569,-0.00001015,0.00012804,0.00000550,-0.0000
 3261,0.00003082,-0.00005619,0.00005358,0.00041488,-0.00029772,-0.00019
 493,-0.02176670,-0.05997764,0.04071914,-0.00140988,0.00116135,-0.00031
 607,0.00000555,0.00000930,0.00001542,0.00001898,-0.00000721,-0.0000089
 1,0.00001357,0.00000432,-0.00002078,0.00046968,0.00003281,0.00006671,0
 .00026711,-0.00021152,0.00004609,0.00003060,-0.00013739,0.00003380,0.0
 0001582,0.00005014,0.00007914,0.03290008,0.00002930,0.00005941,0.00000
 014,0.00013302,0.00005516,0.00000264,0.00046861,0.00069199,0.00145725,
 0.00323001,0.00465638,-0.00632967,-0.00002948,-0.00008426,-0.00011538,
 -0.00000867,0.00005568,0.00008648,-0.00002347,-0.00003919,-0.00001104,
 -0.00001731,-0.00003683,-0.00000769,0.00004474,-0.00004300,-0.00003196
 ,0.00004304,0.00000833,-0.00003671,-0.00048609,-0.00022846,0.00006101,
 -0.05971429,-0.15080913,0.10290664,0.00017147,-0.00023481,0.00017786,0
 .00000330,0.00000666,0.00001463,0.00000598,-0.00001047,-0.00001288,0.0
 0001205,-0.00001646,-0.00001907,0.00006557,-0.00010998,-0.00004714,0.0
 0006812,-0.00001902,0.00005615,0.00010339,0.00006027,0.00003651,0.0000
 3706,0.00006764,0.00005136,0.05293623,0.15336625,0.00005178,-0.0000386
 7,0.00003451,0.00015923,0.00019350,0.00009761,0.00075941,-0.00024482,-
 0.00060033,-0.00148080,-0.00264198,0.00107380,-0.00004350,0.00001951,0
 .00011591,0.00010874,0.00003382,-0.00006463,-0.00007883,-0.00000554,0.
 00003513,-0.00004155,0.00002017,0.00001649,-0.00007042,-0.00003460,-0.
 00005765,-0.00005462,-0.00002114,-0.00004100,-0.00043305,0.00003285,0.
 00008034,0.04056157,0.10301440,-0.07149036,-0.00047024,0.00034935,0.00
 082363,-0.00000987,-0.00000800,-0.00000886,-0.00003078,-0.00000329,-0.
 00000455,-0.00002714,-0.00001963,0.00000366,0.00011788,-0.00001632,-0.
 00016542,0.00026977,-0.00000798,-0.00018525,-0.00002223,-0.00002962,-0
 .00007452,0.00004322,-0.00001421,-0.00007925,-0.03771774,-0.10422838,0
 .07191726,0.00007000,0.00002088,0.00014153,0.00159077,0.00079435,0.000
 80324,-0.00414215,-0.01404264,0.05278530,-0.28976124,-0.22357508,0.166
 93175,-0.00019287,-0.00040852,-0.00097290,-0.00008579,-0.00007031,0.00
 091566,-0.00033698,0.00004634,-0.00015560,0.00001296,-0.00018004,-0.00
 013255,-0.00001533,0.00052078,-0.00038071,0.00045038,0.00024699,-0.000
 25958,-0.00227067,-0.00121072,-0.00043848,-0.00635378,0.00218501,-0.00
 072015,-0.02584999,-0.05121653,0.00137135,0.00002589,0.00007785,0.0001
 2209,0.00008000,0.00003740,-0.00011882,-0.00003362,0.00011176,-0.00011
 101,-0.00350747,-0.00021558,-0.00206680,-0.00111773,0.00049423,0.00209
 680,0.00131247,-0.00033451,-0.00051245,0.00017913,0.00027787,0.0005377
 4,-0.00400729,0.00290170,-0.00157851,0.33393029,0.00003934,0.00009684,
 0.00014396,0.00110072,0.00181079,0.00015264,-0.01710060,0.00481733,0.0
 4001497,-0.23461501,-0.28006305,0.17343841,-0.00010168,-0.00037005,-0.
 00066136,-0.00012620,0.00012233,0.00060092,-0.00012102,-0.00003643,-0.
 00008610,0.00002992,-0.00027179,-0.00003418,0.00019197,0.00022829,-0.0
 0032887,0.00036003,-0.00006732,-0.00033883,-0.00060045,-0.00211243,-0.
 00006766,0.00195074,-0.00187811,0.00044609,-0.04997289,-0.03175043,0.0
 0114761,0.00002430,0.00004502,0.00008849,0.00006986,-0.00003161,-0.000
 07350,0.00002549,0.00002260,-0.00009178,-0.00050976,0.00109289,-0.0007
 3373,0.00015236,-0.00067799,0.00192595,-0.00013130,-0.00344093,-0.0020
 1099,0.00009510,0.00028077,0.00034397,0.01575243,-0.00738641,0.0036379
 0,0.28348007,0.31953396,0.00052281,0.00042748,-0.00024672,0.00051652,-
 0.00035316,-0.00432899,0.03707984,0.02714879,-0.06315450,0.19262981,0.
 18599807,-0.19653222,0.00008392,0.00040277,0.00100591,0.00040913,0.000
 16145,-0.00110372,0.00018585,-0.00006232,0.00025453,-0.00012776,0.0002
 4388,0.00019336,-0.00011642,-0.00080193,-0.00011496,-0.00073678,-0.000
 16817,-0.00024958,0.00084058,0.00106282,0.00117750,-0.00057424,0.00027
 408,-0.00082634,-0.00187746,-0.00217388,0.01744907,-0.00004485,-0.0000
 8523,-0.00013468,-0.00019733,-0.00003839,0.00005224,-0.00003379,-0.000
 17609,0.00008349,-0.00012022,-0.00107666,-0.00097400,0.00114231,0.0011
 7081,-0.00120390,-0.00086399,-0.00015643,-0.00085092,-0.00004110,-0.00
 024753,-0.00059034,-0.01039277,0.00598473,-0.00142309,-0.21827021,-0.2
 1753582,0.25152926\\0.00000008,0.00000033,-0.00000033,0.00000022,0.000
 00023,0.00000007,-0.00000034,-0.00000002,-0.00000003,-0.00000019,-0.00
 000045,0.00000046,-0.00000059,-0.00000092,-0.00000030,-0.00000050,-0.0
 0000040,-0.00000055,0.00000033,-0.00000002,0.00000014,-0.00000002,0.00
 000008,0.,0.00000001,-0.00000030,-0.00000008,-0.00000023,0.,-0.0000000
 6,0.00000012,0.00000018,0.00000009,-0.00000003,0.00000006,-0.00000008,
 0.00000013,0.00000044,-0.00000029,-0.00000058,-0.00000067,0.00000023,-
 0.00000010,0.00000005,-0.00000008,0.00000010,-0.00000045,-0.00000007,0
 .00000004,-0.00000039,0.00000011,-0.00000005,-0.00000006,0.00000010,-0
 .00000029,0.,-0.00000002,0.00000136,0.00000202,0.00000096,0.00000007,-
 0.00000009,0.00000007,0.00000044,0.00000039,-0.00000035\\\@


    THE DOUGHNUT CREED
 AS YOU RAMBLE ON THROUGH LIFE, BROTHER
 WHATEVER BE YOUR GOAL
 KEEP YOUR EYE UPON THE DOUGHNUT
 AND NOT UPON THE HOLE.
 Job cpu time:       0 days  0 hours  0 minutes  1.3 seconds.
 File lengths (MBytes):  RWF=     51 Int=      0 D2E=      0 Chk=      2 Scr=      1
 Normal termination of Gaussian 09 at Tue Feb 16 09:45:57 2021.
