22
Properties=species:S:1:pos:R:3 energy=-13595.580115728095 pbc="F F F"
C        5.74731500      -6.34008700       0.79695200
C        5.25089800      -5.70533400      -0.50555500
C        6.40804500      -5.20546800      -1.33161100
C        7.04915300      -6.05661300      -2.41321900
C        5.05522600      -7.52715200       2.91931100
C        4.58347200      -6.83873000       1.65806600
H        6.43850600      -7.18158400       0.58105500
H        6.35431600      -5.61512700       1.37746300
H        4.64318600      -6.42741700      -1.08914500
H        4.56417100      -4.85866000      -0.29363400
H        6.97412500      -4.37583100      -0.89766600
H        8.45826400      -4.77583300      -2.97479400
C        6.74620200      -7.48323900      -2.72331400
H        4.24857000      -7.84767400       3.59996700
H        3.91391300      -5.99515500       1.92589200
H        3.94778800      -7.54102100       1.07879500
H        6.63633400      -8.08471100      -1.81058200
H        7.55912400      -7.93467800      -3.31898200
H        5.82044700      -7.57261400      -3.31178500
O        6.21943200      -7.72458900       3.18003500
O        8.34750500      -5.74296700      -2.81408700
O        6.10677600      -5.00606800      -2.76746300
