3
Properties=species:S:1:pos:R:3 energy=-2079.862228091055 pbc="F F F"
O        0.97824100      -0.02882000      -0.08715800
H        0.67702300      -0.67792600       0.53633400
H        1.92721700      -0.04037400      -0.07606000
