22
Properties=species:S:1:pos:R:3 energy=-13591.393043541802 pbc="F F F"
C       -0.36309533      -0.00452900       1.41398249
C        0.03774518       0.25751830      -0.04266576
C       -0.29105757      -0.88462306      -0.93721743
C       -0.14848063      -0.80430376      -2.34285155
C       -0.46206158       0.96911074       3.74450178
C        0.03479445       1.15794700       2.32802448
H       -1.45707064      -0.17893804       1.49100829
H        0.10533389      -0.94177843       1.77999549
H       -0.45035877       1.18605774      -0.41224522
H        1.13190025       0.46136990      -0.10441374
H       -0.71070472      -1.79011727      -0.48708906
H        1.61955892      -3.07926889      -1.54620435
C        0.06050503       0.43610859      -3.13746470
H       -0.09790090       1.72023872       4.46544251
H        1.13706054       1.28277280       2.33402764
H       -0.36661435       2.11517955       1.93380898
H       -0.78939961       1.12471098      -3.04593825
H        0.18401202       0.20260174      -4.20685287
H        0.96753679       0.97276404      -2.82383192
O       -1.20541592       0.07671343       4.08066589
O        1.02961866      -2.30344422      -1.59084348
O        0.03409431      -1.97609086      -2.89383922
