 Entering Gaussian System, Link 0=g09
 Initial command:
 /cm/shared/apps/Gaussian09/g09/l1.exe "/local/Gau-40014.inp" -scrdir="/local/"
 Entering Link 1 = /cm/shared/apps/Gaussian09/g09/l1.exe PID=     40015.
  
 Copyright (c) 1988,1990,1992,1993,1995,1998,2003,2009,2013,
            Gaussian, Inc.  All Rights Reserved.
  
 This is part of the Gaussian(R) 09 program.  It is based on
 the Gaussian(R) 03 system (copyright 2003, Gaussian, Inc.),
 the Gaussian(R) 98 system (copyright 1998, Gaussian, Inc.),
 the Gaussian(R) 94 system (copyright 1995, Gaussian, Inc.),
 the Gaussian 92(TM) system (copyright 1992, Gaussian, Inc.),
 the Gaussian 90(TM) system (copyright 1990, Gaussian, Inc.),
 the Gaussian 88(TM) system (copyright 1988, Gaussian, Inc.),
 the Gaussian 86(TM) system (copyright 1986, Carnegie Mellon
 University), and the Gaussian 82(TM) system (copyright 1983,
 Carnegie Mellon University). Gaussian is a federally registered
 trademark of Gaussian, Inc.
  
 This software contains proprietary and confidential information,
 including trade secrets, belonging to Gaussian, Inc.
  
 This software is provided under written license and may be
 used, copied, transmitted, or stored only in accord with that
 written license.
  
 The following legend is applicable only to US Government
 contracts under FAR:
  
                    RESTRICTED RIGHTS LEGEND
  
 Use, reproduction and disclosure by the US Government is
 subject to restrictions as set forth in subparagraphs (a)
 and (c) of the Commercial Computer Software - Restricted
 Rights clause in FAR 52.227-19.
  
 Gaussian, Inc.
 340 Quinnipiac St., Bldg. 40, Wallingford CT 06492
  
  
 ---------------------------------------------------------------
 Warning -- This program may not be used in any manner that
 competes with the business of Gaussian, Inc. or will provide
 assistance to any competitor of Gaussian, Inc.  The licensee
 of this program is prohibited from giving any competitor of
 Gaussian, Inc. access to this program.  By using this program,
 the user acknowledges that Gaussian, Inc. is engaged in the
 business of creating and licensing software in the field of
 computational chemistry and represents and warrants to the
 licensee that it is not a competitor of Gaussian, Inc. and that
 it will not use this program in any manner prohibited above.
 ---------------------------------------------------------------
  

 Cite this work as:
 Gaussian 09, Revision D.01,
 M. J. Frisch, G. W. Trucks, H. B. Schlegel, G. E. Scuseria, 
 M. A. Robb, J. R. Cheeseman, G. Scalmani, V. Barone, B. Mennucci, 
 G. A. Petersson, H. Nakatsuji, M. Caricato, X. Li, H. P. Hratchian, 
 A. F. Izmaylov, J. Bloino, G. Zheng, J. L. Sonnenberg, M. Hada, 
 M. Ehara, K. Toyota, R. Fukuda, J. Hasegawa, M. Ishida, T. Nakajima, 
 Y. Honda, O. Kitao, H. Nakai, T. Vreven, J. A. Montgomery, Jr., 
 J. E. Peralta, F. Ogliaro, M. Bearpark, J. J. Heyd, E. Brothers, 
 K. N. Kudin, V. N. Staroverov, T. Keith, R. Kobayashi, J. Normand, 
 K. Raghavachari, A. Rendell, J. C. Burant, S. S. Iyengar, J. Tomasi, 
 M. Cossi, N. Rega, J. M. Millam, M. Klene, J. E. Knox, J. B. Cross, 
 V. Bakken, C. Adamo, J. Jaramillo, R. Gomperts, R. E. Stratmann, 
 O. Yazyev, A. J. Austin, R. Cammi, C. Pomelli, J. W. Ochterski, 
 R. L. Martin, K. Morokuma, V. G. Zakrzewski, G. A. Voth, 
 P. Salvador, J. J. Dannenberg, S. Dapprich, A. D. Daniels, 
 O. Farkas, J. B. Foresman, J. V. Ortiz, J. Cioslowski, 
 and D. J. Fox, Gaussian, Inc., Wallingford CT, 2013.
 
 ******************************************
 Gaussian 09:  ES64L-G09RevD.01 24-Apr-2013
                17-Feb-2021 
 ******************************************
 %nprocshared=1
 Will use up to    1 processors via shared memory.
 ----------------------------------------------------------------------
 #P pm6 scf=qc opt(calcall, ts, noeigentest, cartesian,maxcycle=100) No
 Symm
 ----------------------------------------------------------------------
 1/5=1,6=100,10=4,11=1,14=-1,18=10,26=1,38=1/1,3;
 2/12=2,15=1,17=6,18=5,29=2,40=1/2;
 3/5=2,16=1,25=1,41=3900000,71=2,140=1/1,2,3;
 4/35=1/1;
 5/5=2,8=3,35=1,38=5/8;
 8/6=4,10=90,11=11/1;
 11/6=1,8=1,9=11,15=111,16=1,31=1/1,2,10;
 10/6=1,31=1/2;
 6/7=2,8=2,9=2,10=2,18=1,28=1/1;
 7/7=1,10=1,25=1,30=1/1,2,3,16;
 1/5=1,6=100,10=4,11=1,14=-1,18=10,26=1/3(3);
 2/15=1,29=1/2;
 7/7=1,8=1,9=1,25=1,30=1,44=-1/16;
 99/12=1/99;
 2/15=1,29=1/2;
 3/5=2,16=1,25=1,41=3900000,71=2,135=20,140=1/1,2,3;
 4/5=5,16=3,35=1/1;
 5/5=2,8=3,35=1,38=5/8;
 8/6=4,10=90,11=11/1;
 11/6=1,8=1,9=11,15=111,16=1,31=1/1,2,10;
 10/6=1,31=1/2;
 7/7=1,10=1,25=1,30=1/1,2,3,16;
 1/5=1,6=100,10=4,11=1,14=-1,18=10,26=1/3(-8);
 2/15=1,29=1/2;
 6/7=2,8=2,9=2,10=2,18=1,19=2,28=1/1;
 7/7=1,8=1,9=1,25=1,30=1,44=-1/16;
 99/12=1/99;
 Leave Link    1 at Wed Feb 17 07:56:38 2021, MaxMem=           0 cpu:         0.0
 (Enter /cm/shared/apps/Gaussian09/g09/l101.exe)
 ------------------------------
 Gaussian input prepared by ASE
 ------------------------------
 Symbolic Z-matrix:
 Charge =  0 Multiplicity = 2
 O                     1.1348   -0.88136   4.12958 
 C                     1.03015   0.07594   3.39806 
 C                     1.36871  -0.00554   1.92602 
 C                     0.60671   0.93144   1.08086 
 C                     0.83749   0.98503  -0.37796 
 C                     0.20667  -0.17059  -1.17667 
 H                     0.99409  -0.71089  -1.76749 
 C                    -0.88691   0.32599  -2.15318 
 O                    -0.9044    1.47954  -2.51345 
 C                    -1.84801  -0.70713  -2.63512 
 H                     0.6939    1.05883   3.76462 
 H                     2.46664   0.16136   1.80807 
 H                     1.23259  -1.05314   1.55277 
 H                    -1.14886  -0.82634   1.20467 
 H                    -0.11958   1.59398   1.51922 
 H                     0.4545    1.95532  -0.78702 
 H                     1.92996   1.00886  -0.58654 
 H                    -2.37602  -1.18069  -1.78561 
 H                    -2.60759  -0.27512  -3.30238 
 H                    -1.34859  -1.52329  -3.17345 
 O                    -1.46778  -0.95711   0.25982 
 O                    -0.24849  -1.28511  -0.38485 
 
 NAtoms=     22 NQM=       22 NQMF=       0 NMMI=      0 NMMIF=      0
                NMic=       0 NMicF=      0.
                    Isotopes and Nuclear Properties:
 (Nuclear quadrupole moments (NQMom) in fm**2, nuclear magnetic moments (NMagM)
  in nuclear magnetons)

  Atom         1           2           3           4           5           6           7           8           9          10
 IAtWgt=          16          12          12          12          12          12           1          12          16          12
 AtmWgt=  15.9949146  12.0000000  12.0000000  12.0000000  12.0000000  12.0000000   1.0078250  12.0000000  15.9949146  12.0000000
 NucSpn=           0           0           0           0           0           0           1           0           0           0
 AtZEff=   0.0000000   0.0000000   0.0000000   0.0000000   0.0000000   0.0000000   0.0000000   0.0000000   0.0000000   0.0000000
 NQMom=    0.0000000   0.0000000   0.0000000   0.0000000   0.0000000   0.0000000   0.0000000   0.0000000   0.0000000   0.0000000
 NMagM=    0.0000000   0.0000000   0.0000000   0.0000000   0.0000000   0.0000000   2.7928460   0.0000000   0.0000000   0.0000000
 AtZNuc=   8.0000000   6.0000000   6.0000000   6.0000000   6.0000000   6.0000000   1.0000000   6.0000000   8.0000000   6.0000000

  Atom        11          12          13          14          15          16          17          18          19          20
 IAtWgt=           1           1           1           1           1           1           1           1           1           1
 AtmWgt=   1.0078250   1.0078250   1.0078250   1.0078250   1.0078250   1.0078250   1.0078250   1.0078250   1.0078250   1.0078250
 NucSpn=           1           1           1           1           1           1           1           1           1           1
 AtZEff=   0.0000000   0.0000000   0.0000000   0.0000000   0.0000000   0.0000000   0.0000000   0.0000000   0.0000000   0.0000000
 NQMom=    0.0000000   0.0000000   0.0000000   0.0000000   0.0000000   0.0000000   0.0000000   0.0000000   0.0000000   0.0000000
 NMagM=    2.7928460   2.7928460   2.7928460   2.7928460   2.7928460   2.7928460   2.7928460   2.7928460   2.7928460   2.7928460
 AtZNuc=   1.0000000   1.0000000   1.0000000   1.0000000   1.0000000   1.0000000   1.0000000   1.0000000   1.0000000   1.0000000

  Atom        21          22
 IAtWgt=          16          16
 AtmWgt=  15.9949146  15.9949146
 NucSpn=           0           0
 AtZEff=   0.0000000   0.0000000
 NQMom=    0.0000000   0.0000000
 NMagM=    0.0000000   0.0000000
 AtZNuc=   8.0000000   8.0000000
 Leave Link  101 at Wed Feb 17 07:56:38 2021, MaxMem=    33554432 cpu:         0.1
 (Enter /cm/shared/apps/Gaussian09/g09/l103.exe)

 GradGradGradGradGradGradGradGradGradGradGradGradGradGradGradGradGradGrad
 Berny optimization.
 Initialization pass.
 No Z-matrix variables, so optimization will use Cartesian coordinates.
 Trust Radius=3.00D-01 FncErr=1.00D-07 GrdErr=1.00D-07
 Number of steps in this run=    100 maximum allowed number of steps=    132.
 Search for a saddle point of order  1.
 GradGradGradGradGradGradGradGradGradGradGradGradGradGradGradGradGradGrad

 Leave Link  103 at Wed Feb 17 07:56:38 2021, MaxMem=    33554432 cpu:         0.0
 (Enter /cm/shared/apps/Gaussian09/g09/l202.exe)
 ---------------------------------------------------------------------------------------------------
                            Z-MATRIX (ANGSTROMS AND DEGREES)
   CD    Cent   Atom    N1       Length/X        N2       Alpha/Y        N3        Beta/Z          J
 ---------------------------------------------------------------------------------------------------
      1      1  O        0   1.134804         -0.881357          4.129577
      2      2  C        0   1.030153          0.075940          3.398065
      3      3  C        0   1.368711         -0.005536          1.926022
      4      4  C        0   0.606707          0.931441          1.080864
      5      5  C        0   0.837492          0.985031         -0.377957
      6      6  C        0   0.206666         -0.170589         -1.176668
      7      7  H        0   0.994093         -0.710886         -1.767493
      8      8  C        0  -0.886905          0.325993         -2.153182
      9      9  O        0  -0.904400          1.479539         -2.513446
     10     10  C        0  -1.848010         -0.707131         -2.635120
     11     11  H        0   0.693902          1.058833          3.764615
     12     12  H        0   2.466642          0.161363          1.808075
     13     13  H        0   1.232591         -1.053135          1.552773
     14     14  H        0  -1.148861         -0.826343          1.204667
     15     15  H        0  -0.119576          1.593975          1.519221
     16     16  H        0   0.454501          1.955324         -0.787015
     17     17  H        0   1.929956          1.008860         -0.586536
     18     18  H        0  -2.376023         -1.180691         -1.785608
     19     19  H        0  -2.607588         -0.275119         -3.302377
     20     20  H        0  -1.348592         -1.523293         -3.173447
     21     21  O        0  -1.467777         -0.957106          0.259818
     22     22  O        0  -0.248486         -1.285112         -0.384849
 ---------------------------------------------------------------------------------------------------
                         Z-Matrix orientation:                         
 ---------------------------------------------------------------------
 Center     Atomic      Atomic             Coordinates (Angstroms)
 Number     Number       Type             X           Y           Z
 ---------------------------------------------------------------------
      1          8           0        1.134804   -0.881357    4.129577
      2          6           0        1.030153    0.075940    3.398065
      3          6           0        1.368711   -0.005536    1.926022
      4          6           0        0.606707    0.931441    1.080864
      5          6           0        0.837492    0.985031   -0.377957
      6          6           0        0.206666   -0.170589   -1.176668
      7          1           0        0.994093   -0.710886   -1.767493
      8          6           0       -0.886905    0.325993   -2.153182
      9          8           0       -0.904400    1.479539   -2.513446
     10          6           0       -1.848010   -0.707131   -2.635120
     11          1           0        0.693902    1.058833    3.764615
     12          1           0        2.466642    0.161363    1.808075
     13          1           0        1.232591   -1.053135    1.552773
     14          1           0       -1.148861   -0.826343    1.204667
     15          1           0       -0.119576    1.593975    1.519221
     16          1           0        0.454501    1.955324   -0.787015
     17          1           0        1.929956    1.008860   -0.586536
     18          1           0       -2.376023   -1.180691   -1.785608
     19          1           0       -2.607588   -0.275119   -3.302377
     20          1           0       -1.348592   -1.523293   -3.173447
     21          8           0       -1.467777   -0.957106    0.259818
     22          8           0       -0.248486   -1.285112   -0.384849
 ---------------------------------------------------------------------
                    Distance matrix (angstroms):
                    1          2          3          4          5
     1  O    0.000000
     2  C    1.209330   0.000000
     3  C    2.382735   1.512670   0.000000
     4  C    3.586052   2.506114   1.474065   0.000000
     5  C    4.887705   3.888689   2.563540   1.477936   0.000000
     6  C    5.433495   4.654792   3.317270   2.543808   1.539916
     7  H    5.901211   5.225264   3.778877   3.310656   2.198061
     8  C    6.709550   5.878263   4.673074   3.613378   2.561114
     9  O    7.339070   6.376406   5.203976   3.937376   2.799829
    10  C    7.395178   6.730255   5.625259   4.745429   3.894884
    11  H    2.022852   1.101591   2.229052   2.688187   4.145717
    12  H    2.872356   2.144497   1.116790   2.140377   2.848033
    13  H    2.584374   2.172762   1.120405   2.133769   2.835127
    14  H    3.711233   3.220747   2.744493   2.487398   3.119515
    15  H    3.809816   2.675138   2.222369   1.076381   2.210447
    16  H    5.716857   4.623673   3.470061   2.135527   1.120481
    17  H    5.142656   4.190111   2.767118   2.130071   1.112452
    18  H    6.885123   6.328635   5.401871   4.644830   4.122926
    19  H    8.343079   7.632321   6.574175   5.567790   4.691353
    20  H    7.740381   7.169431   5.974270   5.286594   4.345736
    21  O    4.664140   4.141912   3.424527   2.923049   3.081059
    22  O    4.738834   4.218746   3.097218   2.791554   2.516535
                    6          7          8          9         10
     6  C    0.000000
     7  H    1.122958   0.000000
     8  C    1.547925   2.182207   0.000000
     9  O    2.396741   2.993107   1.208621   0.000000
    10  C    2.576170   2.971588   1.491084   2.384687   0.000000
    11  H    5.115189   5.816033   6.168981   6.491966   7.108907
    12  H    3.758507   3.964076   5.192777   5.637114   6.253997
    13  H    3.046516   3.346368   4.486464   5.245504   5.210400
    14  H    2.817486   3.665967   3.559726   4.381919   3.904738
    15  H    3.238509   4.165949   3.960191   4.109921   5.053822
    16  H    2.175490   2.891569   2.514061   2.248010   3.975640
    17  H    2.170042   2.286488   3.294753   3.459494   4.627564
    18  H    2.839260   3.402752   2.150042   3.126059   1.106674
    19  H    3.528398   3.939272   2.154700   2.569452   1.099466
    20  H    2.869801   2.850418   2.161933   3.106430   1.097877
    21  O    2.342192   3.198658   2.793980   3.734385   2.930482
    22  O    1.440938   1.945621   2.475933   3.550274   2.820684
                   11         12         13         14         15
    11  H    0.000000
    12  H    2.788568   0.000000
    13  H    3.105293   1.750161   0.000000
    14  H    3.674643   3.796251   2.417422   0.000000
    15  H    2.447431   2.970579   2.972655   2.648832   0.000000
    16  H    4.645250   3.741858   3.889840   3.778258   2.403927
    17  H    4.523587   2.596236   3.052013   4.006930   2.996190
    18  H    6.726432   6.177950   4.917637   3.251651   4.869520
    19  H    7.913384   7.214918   6.238971   4.769190   5.738599
    20  H    7.679575   6.496894   5.405618   4.437738   5.766193
    21  O    4.584809   4.373526   2.995487   1.005757   3.148295
    22  O    4.858006   3.777978   2.449853   1.883535   3.454163
                   16         17         18         19         20
    16  H    0.000000
    17  H    1.764356   0.000000
    18  H    4.340926   4.977284   0.000000
    19  H    4.547341   5.441847   1.781649   0.000000
    20  H    4.587698   4.883931   1.760422   1.777535   0.000000
    21  O    3.643249   4.015710   2.249148   3.801777   3.481678
    22  O    3.340113   3.169952   2.549401   3.885540   3.007199
                   21         22
    21  O    0.000000
    22  O    1.417693   0.000000
 Symmetry turned off by external request.
 Stoichiometry    C7H11O4(2)
 Framework group  C1[X(C7H11O4)]
 Deg. of freedom    60
 Full point group                 C1      NOp   1
 Rotational constants (GHZ):      2.4274849      0.5336198      0.4749852
 Leave Link  202 at Wed Feb 17 07:56:39 2021, MaxMem=    33554432 cpu:         0.0
 (Enter /cm/shared/apps/Gaussian09/g09/l301.exe)
 Standard basis: VSTO-6G (5D, 7F)
 Ernie: Thresh=  0.10000D-02 Tol=  0.10000D-05 Strict=F.
  NNHCO=     0 NNPyr=     0 NCTC=     0               EPep=         0.000000000
    EC=       304.256631385  ECS=         4.361019748   EG=         0.364383914
   EHC=         0.001402679  EAt=       -76.388488019  AtH=         3.199295150
 EPDDG=         0.000000000  ECC=       308.983437725 EAtT=        79.587783169
    55 basis functions,   330 primitive gaussians,    55 cartesian basis functions
    32 alpha electrons       31 beta electrons
       nuclear repulsion energy       388.5712208937 Hartrees.
 IExCor=    0 DFT=F Ex=HF Corr=None ExCW=0 ScaHFX=  1.000000
 ScaDFX=  1.000000  1.000000  1.000000  1.000000 ScalE2=  1.000000  1.000000
 IRadAn=      0 IRanWt=     -1 IRanGd=            0 ICorTp=0 IEmpDi=  4
 Integral buffers will be    131072 words long.
 Regular integral format.
 Two-electron integral symmetry is turned off.
 Leave Link  301 at Wed Feb 17 07:56:39 2021, MaxMem=    33554432 cpu:         0.0
 (Enter /cm/shared/apps/Gaussian09/g09/l302.exe)
 Do NDO integrals.
 NPDir=0 NMtPBC=     1 NCelOv=     1 NCel=       1 NClECP=     1 NCelD=      1
         NCelK=      1 NCelE2=     1 NClLst=     1 CellRange=     0.0.
 One-electron integrals computed using PRISM.
 NBasis=    55 RedAO= F EigKep=  0.00D+00  NBF=    55
 NBsUse=    55 1.00D-04 EigRej=  0.00D+00 NBFU=    55
 Leave Link  302 at Wed Feb 17 07:56:39 2021, MaxMem=    33554432 cpu:         0.1
 (Enter /cm/shared/apps/Gaussian09/g09/l303.exe)
 DipDrv:  MaxL=1.
 Leave Link  303 at Wed Feb 17 07:56:39 2021, MaxMem=    33554432 cpu:         0.0
 (Enter /cm/shared/apps/Gaussian09/g09/l401.exe)
 Simple Huckel Guess.
 JPrj=0 DoOrth=F DoCkMO=F.
 Initial guess <Sx>= 0.0000 <Sy>= 0.0000 <Sz>= 0.5000 <S**2>= 0.7500 S= 0.5000
 Leave Link  401 at Wed Feb 17 07:56:39 2021, MaxMem=    33554432 cpu:         0.0
 (Enter /cm/shared/apps/Gaussian09/g09/l508.exe)
 Direct SCF.
 Tight linear equation convergence will be used.
 UPM6 wavefunction.
 Quadratic Convergence SCF Method.
 Line search only if initial step raises energy.
 Two-electron integral symmetry not used.
 ReadGW:  IGet=1 IStart=       59293 Next=       59293 LGW=           0.
 Keep J ints in memory in canonical form, NReq=909807.
 FoFCou: FMM=F IPFlag=           0 FMFlag=           0 FMFlg1=           0
         NFxFlg=           0 DoJE=F BraDBF=F KetDBF=F FulRan=T
         wScrn=  0.000000 ICntrl=     600 IOpCl=  2 I1Cent=           0 NGrid=           0
         NMat0=    1 NMatS0=    121 NMatT0=    0 NMatD0=    1 NMtDS0=    0 NMtDT0=    0
 Symmetry not used in FoFCou.
 Iteration   1 EE= 0.462384926577101                                    Grad=5.176D-01 Max rot=    3.8059 deg.
 Gradient too large for Newton-Raphson -- use scaled steepest descent instead.
 Alpha Gap=     0.358 HL deriv= 5.47D-02
  Beta Gap=     0.367 HL deriv= 6.66D-02
     ILin= 1 X=0.000D+00 Y= 4.623849265771D-01 DE= 0.00D+00 F= -6.56D-01
     ILin= 2 X=3.000D-01 Y= 2.812437794810D-01 DE=-1.81D-01 F= -5.50D-01
     ILin= 3 X=5.000D-01 Y= 1.787642868759D-01 DE=-2.84D-01 F= -4.74D-01
     ILin= 4 X=8.000D-01 Y= 5.481965982210D-02 DE=-4.08D-01 F= -3.51D-01
     ILin= 5 X=1.300D+00 Y=-6.472787357018D-02 DE=-5.27D-01 F= -1.23D-01
     ILin= 6 X=2.200D+00 Y= 2.858209293163D-02 DE=-4.34D-01 F=  3.39D-01
     An  expanding polynomial of degree  6 produced  1.5505
 Iteration   2 EE=-0.802584453040254E-01 Delta-E=       -0.542643371881 Grad=1.482D-01 Max rot=    1.3177 deg.
 Gradient too large for Newton-Raphson -- use scaled steepest descent instead.
 Alpha Gap=     0.351 HL deriv= 1.04D-02
  Beta Gap=     0.382 HL deriv= 4.08D-04
     ILin= 1 X=0.000D+00 Y=-8.025844530403D-02 DE= 0.00D+00 F= -5.27D-02
     ILin= 2 X=7.000D-01 Y=-1.082525903631D-01 DE=-2.80D-02 F= -2.72D-02
     ILin= 3 X=1.300D+00 Y=-1.178949589189D-01 DE=-3.76D-02 F= -4.93D-03
     Reject lnstep minimum 1.485D+00 FVal=-1.188655633026D-01 Lims=  7.00D-01  1.30D+00
     ILin= 4 X=2.600D+00 Y=-9.266002374056D-02 DE=-1.24D-02 F=  4.38D-02
     An  expanding polynomial of degree  4 produced  1.4329
     Minimum is close to point  3 DX=  1.33D-01 DF= -3.29D-04 DXR=  9.27D-02 DFR=  8.74D-03 which will be used.
 Iteration   3 EE=-0.117894958918896     Delta-E=       -0.037636513615 Grad=4.246D-02 Max rot=    0.4340 deg.
 Gradient too large for Newton-Raphson -- use scaled steepest descent instead.
 Alpha Gap=     0.357 HL deriv= 4.88D-03
  Beta Gap=     0.389 HL deriv= 2.86D-03
     ILin= 1 X=0.000D+00 Y=-1.178949589189D-01 DE= 0.00D+00 F= -5.39D-03
     ILin= 2 X=1.500D+00 Y=-1.220615759005D-01 DE=-4.17D-03 F= -1.48D-04
     Reject lnstep minimum 1.513D+00 FVal=-1.220622203264D-01 Lims=  0.00D+00  1.50D+00
     ILin= 3 X=3.000D+00 Y=-1.182831280117D-01 DE=-3.88D-04 F=  5.20D-03
     An  expanding polynomial of degree  3 produced  1.5366
     Minimum is close to point  2 DX=  3.66D-02 DF= -2.37D-06 DXR=  2.38D-02 DFR=  5.69D-04 which will be used.
 Iteration   4 EE=-0.122061575900489     Delta-E=       -0.004166616982 Grad=1.959D-02 Max rot=    0.2201 deg.
 Gradient too large for Newton-Raphson -- use scaled steepest descent instead.
 Alpha Gap=     0.355 HL deriv= 1.14D-03
  Beta Gap=     0.390 HL deriv= 4.71D-04
     ILin= 1 X=0.000D+00 Y=-1.220615759005D-01 DE= 0.00D+00 F= -9.70D-04
     ILin= 2 X=1.500D+00 Y=-1.227125358828D-01 DE=-6.51D-04 F=  1.01D-04
     Accept linear search using points  1 and  2.
     An  expanding polynomial of degree  2 produced  1.4416
     Minimum is close to point  2 DX= -5.84D-02 DF= -1.94D-06 DXR=  4.05D-02 DFR=  2.98D-03 which will be used.
 Iteration   5 EE=-0.122712535882783     Delta-E=       -0.000650959982 Grad=1.005D-02 Max rot=    0.1137 deg.
 Gradient too large for Newton-Raphson -- use scaled steepest descent instead.
 Alpha Gap=     0.356 HL deriv= 4.74D-04
  Beta Gap=     0.391 HL deriv= 6.95D-04
     ILin= 1 X=0.000D+00 Y=-1.227125358828D-01 DE= 0.00D+00 F= -2.74D-04
     ILin= 2 X=1.500D+00 Y=-1.228827759173D-01 DE=-1.70D-04 F=  4.69D-05
     Accept linear search using points  1 and  2.
     An  expanding polynomial of degree  2 produced  1.3986
     Minimum is close to point  2 DX= -1.01D-01 DF= -1.56D-06 DXR=  7.25D-02 DFR=  9.15D-03 which will be used.
 Iteration   6 EE=-0.122882775917333     Delta-E=       -0.000170240035 Grad=5.778D-03 Max rot=    0.0642 deg.
 QCNR:  CnvC1=3.85D-09 CnvC2=3.85D-08
 LinEq1:  Iter=  0 NonCon=     1 RMS=2.27D-04 Max=3.82D-03 NDo=     1
 AX will form     1 AO Fock derivatives at one time.
 LinEq1:  Iter=  1 NonCon=     1 RMS=6.77D-05 Max=9.29D-04 NDo=     1
 LinEq1:  Iter=  2 NonCon=     1 RMS=6.04D-06 Max=5.37D-05 NDo=     1
 LinEq1:  Iter=  3 NonCon=     1 RMS=1.41D-06 Max=2.01D-05 NDo=     1
 LinEq1:  Iter=  4 NonCon=     1 RMS=3.38D-07 Max=5.96D-06 NDo=     1
 LinEq1:  Iter=  5 NonCon=     1 RMS=7.97D-08 Max=1.04D-06 NDo=     1
 LinEq1:  Iter=  6 NonCon=     1 RMS=1.84D-08 Max=1.91D-07 NDo=     1
 LinEq1:  Iter=  7 NonCon=     1 RMS=4.12D-09 Max=4.50D-08 NDo=     1
 LinEq1:  Iter=  8 NonCon=     0 RMS=7.93D-10 Max=6.58D-09 NDo=     1
 Linear equations converged to 3.847D-09 3.847D-08 after     8 iterations.
 Angle between quadratic step and gradient=  45.47 degrees.
     ILin= 1 X=0.000D+00 Y=-1.228827759173D-01 DE= 0.00D+00 F= -1.51D-04
     ILin= 2 X=1.000D+00 Y=-1.229585525743D-01 DE=-7.58D-05 F= -1.87D-07
     Reject lnstep minimum 1.001D+00 FVal=-1.229585526905D-01 Lims=  0.00D+00  1.00D+00
     ILin= 3 X=2.000D+00 Y=-1.228832854880D-01 DE=-5.10D-07 F=  1.51D-04
     An  expanding polynomial of degree  3 produced  1.0017
     Minimum is close to point  2 DX=  1.69D-03 DF= -2.15D-10 DXR=  1.68D-03 DFR=  2.84D-06 which will be used.
 Iteration   7 EE=-0.122958552574346     Delta-E=       -0.000075776657 Grad=1.660D-05 Max rot=    0.0002 deg.
 QCNR:  CnvC1=1.66D-10 CnvC2=1.66D-09
 LinEq1:  Iter=  0 NonCon=     1 RMS=6.49D-07 Max=4.72D-06 NDo=     1
 LinEq1:  Iter=  1 NonCon=     1 RMS=1.76D-07 Max=1.67D-06 NDo=     1
 LinEq1:  Iter=  2 NonCon=     1 RMS=3.60D-08 Max=2.99D-07 NDo=     1
 LinEq1:  Iter=  3 NonCon=     1 RMS=8.13D-09 Max=1.01D-07 NDo=     1
 LinEq1:  Iter=  4 NonCon=     1 RMS=1.90D-09 Max=2.41D-08 NDo=     1
 LinEq1:  Iter=  5 NonCon=     1 RMS=4.48D-10 Max=5.25D-09 NDo=     1
 LinEq1:  Iter=  6 NonCon=     0 RMS=1.12D-10 Max=1.40D-09 NDo=     1
 Linear equations converged to 1.660D-10 1.660D-09 after     6 iterations.
 Angle between quadratic step and gradient=  43.64 degrees.
     ILin= 1 X=0.000D+00 Y=-1.229585525743D-01 DE= 0.00D+00 F= -1.28D-09
     ILin= 2 X=1.000D+00 Y=-1.229585532170D-01 DE=-6.43D-10
 Iteration   8 EE=-0.122958553217018     Delta-E=       -0.000000000643 Grad=3.311D-07 Max rot=    0.0000 deg.
 Rotation gradient small -- convergence achieved.
 SCF Done:  E(UPM6) = -0.122958553217     a.u. after    8 cycles
            Convg  =    0.3311D-06                    31 Fock formations.
              S**2 =  0.7549                  -V/T =  0.9967
 <Sx>= 0.0000 <Sy>= 0.0000 <Sz>= 0.5000 <S**2>= 0.7549 S= 0.5024
 <L.S>= 0.000000000000E+00
 Annihilation of the first spin contaminant:
 S**2 before annihilation     0.7549,   after     0.7500
 Leave Link  508 at Wed Feb 17 07:56:39 2021, MaxMem=    33554432 cpu:         0.1
 (Enter /cm/shared/apps/Gaussian09/g09/l801.exe)
 Range of M.O.s used for correlation:     1    55
 NBasis=    55 NAE=    32 NBE=    31 NFC=     0 NFV=     0
 NROrb=     55 NOA=    32 NOB=    31 NVA=    23 NVB=    24
 Leave Link  801 at Wed Feb 17 07:56:39 2021, MaxMem=    33554432 cpu:         0.0
 (Enter /cm/shared/apps/Gaussian09/g09/l1101.exe)
 Using compressed storage, NAtomX=    22.
 Will process     23 centers per pass.
 Leave Link 1101 at Wed Feb 17 07:56:39 2021, MaxMem=    33554432 cpu:         0.0
 (Enter /cm/shared/apps/Gaussian09/g09/l1102.exe)
 Symmetrizing basis deriv contribution to polar:
 IMax=3 JMax=2 DiffMx= 0.00D+00
 Leave Link 1102 at Wed Feb 17 07:56:39 2021, MaxMem=    33554432 cpu:         0.0
 (Enter /cm/shared/apps/Gaussian09/g09/l1110.exe)
 Forming Gx(P) for the SCF density, NAtomX=    22.
 Integral derivatives from FoFJK, PRISM(SPDF).
 Do as many integral derivatives as possible in FoFJK.
 G2DrvN: MDV=      33495261.
 G2DrvN: will do    23 centers at a time, making    1 passes.
 Calling FoFCou, ICntrl=  3107 FMM=F I1Cent=   0 AccDes= 0.00D+00.
 FoFJK:  IHMeth=40 ICntrl=    3107 DoSepK=F KAlg= 0 I1Cent=   0 FoldK=F
 IRaf=         0 NMat=   1 IRICut=       1 DoRegI=T DoRafI=F ISym2E= 0.
 FoFCou: FMM=F IPFlag=           0 FMFlag=      100000 FMFlg1=           0
         NFxFlg=           0 DoJE=F BraDBF=F KetDBF=F FulRan=T
         wScrn=  0.000000 ICntrl=    3107 IOpCl=  1 I1Cent=           0 NGrid=           0
         NMat0=    1 NMatS0=      1 NMatT0=    0 NMatD0=    1 NMtDS0=    0 NMtDT0=    0
 Symmetry not used in FoFCou.
 End of G2Drv F.D. properties file   721 does not exist.
 End of G2Drv F.D. properties file   722 does not exist.
 End of G2Drv F.D. properties file   788 does not exist.
 Leave Link 1110 at Wed Feb 17 07:56:39 2021, MaxMem=    33554432 cpu:         0.0
 (Enter /cm/shared/apps/Gaussian09/g09/l1002.exe)
 Minotr:  UHF open shell wavefunction.
          IDoAtm=1111111111111111111111
          Direct CPHF calculation.
          Differentiating once with respect to electric field.
                with respect to dipole field.
          Differentiating once with respect to nuclear coordinates.
          Electric field/nuclear overlap derivatives assumed to be zero.
          Requested convergence is 1.0D-08 RMS, and 1.0D-07 maximum.
          NewPWx=T KeepS1=F KeepF1=F KeepIn=T MapXYZ=F SortEE=F KeepMc=T.
          MDV=      33495207 using IRadAn=       2.
 Keep J ints in memory in canonical form, NReq=889842.
 FoFCou: FMM=F IPFlag=           0 FMFlag=           0 FMFlg1=           0
         NFxFlg=           0 DoJE=F BraDBF=F KetDBF=F FulRan=T
         wScrn=  0.000000 ICntrl=     600 IOpCl=  2 I1Cent=           0 NGrid=           0
         NMat0=    1 NMatS0=    121 NMatT0=    0 NMatD0=    1 NMtDS0=    0 NMtDT0=    0
 Symmetry not used in FoFCou.
          Solving linear equations separately, MaxMat=       0.
          There are    69 degrees of freedom in the 1st order CPHF.  IDoFFX=5 NUNeed=    69.
 LinEq1:  Iter=  0 NonCon=    69 RMS=1.77D-01 Max=1.59D+00 NDo=    69
 AX will form    69 AO Fock derivatives at one time.
 LinEq1:  Iter=  1 NonCon=    69 RMS=2.41D-02 Max=1.87D-01 NDo=    69
 LinEq1:  Iter=  2 NonCon=    69 RMS=4.30D-03 Max=4.20D-02 NDo=    69
 LinEq1:  Iter=  3 NonCon=    69 RMS=8.10D-04 Max=6.49D-03 NDo=    69
 LinEq1:  Iter=  4 NonCon=    69 RMS=1.47D-04 Max=1.73D-03 NDo=    69
 LinEq1:  Iter=  5 NonCon=    69 RMS=2.54D-05 Max=2.32D-04 NDo=    69
 LinEq1:  Iter=  6 NonCon=    69 RMS=5.76D-06 Max=7.76D-05 NDo=    69
 LinEq1:  Iter=  7 NonCon=    54 RMS=1.52D-06 Max=2.05D-05 NDo=    69
 LinEq1:  Iter=  8 NonCon=    23 RMS=3.51D-07 Max=4.97D-06 NDo=    69
 LinEq1:  Iter=  9 NonCon=     3 RMS=5.71D-08 Max=4.87D-07 NDo=    69
 LinEq1:  Iter= 10 NonCon=     3 RMS=1.10D-08 Max=1.51D-07 NDo=    69
 LinEq1:  Iter= 11 NonCon=     0 RMS=2.43D-09 Max=2.53D-08 NDo=    69
 Linear equations converged to 1.000D-08 1.000D-07 after    11 iterations.
 FullF1:  Do perturbations    1 to     3.
 Isotropic polarizability for W=    0.000000       65.09 Bohr**3.
 End of Minotr F.D. properties file   721 does not exist.
 End of Minotr F.D. properties file   722 does not exist.
 End of Minotr F.D. properties file   788 does not exist.
 Leave Link 1002 at Wed Feb 17 07:56:39 2021, MaxMem=    33554432 cpu:         0.5
 (Enter /cm/shared/apps/Gaussian09/g09/l601.exe)
 Copying SCF densities to generalized density rwf, IOpCl= 1 IROHF=0.

 **********************************************************************

            Population analysis using the SCF density.

 **********************************************************************

 Alpha  occ. eigenvalues --   -1.18304  -1.18206  -1.12519  -1.08001  -1.04893
 Alpha  occ. eigenvalues --   -0.99607  -0.97696  -0.87526  -0.79414  -0.76218
 Alpha  occ. eigenvalues --   -0.74708  -0.67936  -0.63918  -0.63237  -0.62542
 Alpha  occ. eigenvalues --   -0.59583  -0.57893  -0.57676  -0.55917  -0.55073
 Alpha  occ. eigenvalues --   -0.53269  -0.52053  -0.50062  -0.50005  -0.49654
 Alpha  occ. eigenvalues --   -0.48918  -0.45473  -0.42685  -0.40497  -0.38358
 Alpha  occ. eigenvalues --   -0.37894  -0.34784
 Alpha virt. eigenvalues --   -0.01228   0.00339   0.01147   0.08684   0.08945
 Alpha virt. eigenvalues --    0.10282   0.11129   0.13000   0.13250   0.14821
 Alpha virt. eigenvalues --    0.15366   0.15838   0.16359   0.16672   0.16916
 Alpha virt. eigenvalues --    0.17588   0.18425   0.18866   0.19650   0.19921
 Alpha virt. eigenvalues --    0.21147   0.21363   0.23009
  Beta  occ. eigenvalues --   -1.18294  -1.18203  -1.12467  -1.07950  -1.04428
  Beta  occ. eigenvalues --   -0.99570  -0.97552  -0.87179  -0.79286  -0.75800
  Beta  occ. eigenvalues --   -0.74314  -0.67882  -0.63361  -0.63090  -0.62295
  Beta  occ. eigenvalues --   -0.59466  -0.57714  -0.57398  -0.55824  -0.55036
  Beta  occ. eigenvalues --   -0.52830  -0.51632  -0.49766  -0.49530  -0.49414
  Beta  occ. eigenvalues --   -0.48703  -0.45287  -0.42614  -0.40363  -0.38321
  Beta  occ. eigenvalues --   -0.37389
  Beta virt. eigenvalues --   -0.01212   0.00288   0.00825   0.01438   0.08729
  Beta virt. eigenvalues --    0.09130   0.10309   0.11481   0.13371   0.14099
  Beta virt. eigenvalues --    0.15430   0.15583   0.16008   0.16492   0.16949
  Beta virt. eigenvalues --    0.16967   0.17888   0.18619   0.18869   0.19656
  Beta virt. eigenvalues --    0.20249   0.21416   0.21838   0.23012
          Condensed to atoms (all electrons):
               1          2          3          4          5          6
     1  O    6.455739   0.000000   0.000000   0.000000   0.000000   0.000000
     2  C    0.000000   3.591278   0.000000   0.000000   0.000000   0.000000
     3  C    0.000000   0.000000   4.468225   0.000000   0.000000   0.000000
     4  C    0.000000   0.000000   0.000000   4.138161   0.000000   0.000000
     5  C    0.000000   0.000000   0.000000   0.000000   4.324495   0.000000
     6  C    0.000000   0.000000   0.000000   0.000000   0.000000   4.050787
     7  H    0.000000   0.000000   0.000000   0.000000   0.000000   0.000000
     8  C    0.000000   0.000000   0.000000   0.000000   0.000000   0.000000
     9  O    0.000000   0.000000   0.000000   0.000000   0.000000   0.000000
    10  C    0.000000   0.000000   0.000000   0.000000   0.000000   0.000000
    11  H    0.000000   0.000000   0.000000   0.000000   0.000000   0.000000
    12  H    0.000000   0.000000   0.000000   0.000000   0.000000   0.000000
    13  H    0.000000   0.000000   0.000000   0.000000   0.000000   0.000000
    14  H    0.000000   0.000000   0.000000   0.000000   0.000000   0.000000
    15  H    0.000000   0.000000   0.000000   0.000000   0.000000   0.000000
    16  H    0.000000   0.000000   0.000000   0.000000   0.000000   0.000000
    17  H    0.000000   0.000000   0.000000   0.000000   0.000000   0.000000
    18  H    0.000000   0.000000   0.000000   0.000000   0.000000   0.000000
    19  H    0.000000   0.000000   0.000000   0.000000   0.000000   0.000000
    20  H    0.000000   0.000000   0.000000   0.000000   0.000000   0.000000
    21  O    0.000000   0.000000   0.000000   0.000000   0.000000   0.000000
    22  O    0.000000   0.000000   0.000000   0.000000   0.000000   0.000000
               7          8          9         10         11         12
     1  O    0.000000   0.000000   0.000000   0.000000   0.000000   0.000000
     2  C    0.000000   0.000000   0.000000   0.000000   0.000000   0.000000
     3  C    0.000000   0.000000   0.000000   0.000000   0.000000   0.000000
     4  C    0.000000   0.000000   0.000000   0.000000   0.000000   0.000000
     5  C    0.000000   0.000000   0.000000   0.000000   0.000000   0.000000
     6  C    0.000000   0.000000   0.000000   0.000000   0.000000   0.000000
     7  H    0.832439   0.000000   0.000000   0.000000   0.000000   0.000000
     8  C    0.000000   3.448659   0.000000   0.000000   0.000000   0.000000
     9  O    0.000000   0.000000   6.474203   0.000000   0.000000   0.000000
    10  C    0.000000   0.000000   0.000000   4.623563   0.000000   0.000000
    11  H    0.000000   0.000000   0.000000   0.000000   0.900377   0.000000
    12  H    0.000000   0.000000   0.000000   0.000000   0.000000   0.802630
    13  H    0.000000   0.000000   0.000000   0.000000   0.000000   0.000000
    14  H    0.000000   0.000000   0.000000   0.000000   0.000000   0.000000
    15  H    0.000000   0.000000   0.000000   0.000000   0.000000   0.000000
    16  H    0.000000   0.000000   0.000000   0.000000   0.000000   0.000000
    17  H    0.000000   0.000000   0.000000   0.000000   0.000000   0.000000
    18  H    0.000000   0.000000   0.000000   0.000000   0.000000   0.000000
    19  H    0.000000   0.000000   0.000000   0.000000   0.000000   0.000000
    20  H    0.000000   0.000000   0.000000   0.000000   0.000000   0.000000
    21  O    0.000000   0.000000   0.000000   0.000000   0.000000   0.000000
    22  O    0.000000   0.000000   0.000000   0.000000   0.000000   0.000000
              13         14         15         16         17         18
     1  O    0.000000   0.000000   0.000000   0.000000   0.000000   0.000000
     2  C    0.000000   0.000000   0.000000   0.000000   0.000000   0.000000
     3  C    0.000000   0.000000   0.000000   0.000000   0.000000   0.000000
     4  C    0.000000   0.000000   0.000000   0.000000   0.000000   0.000000
     5  C    0.000000   0.000000   0.000000   0.000000   0.000000   0.000000
     6  C    0.000000   0.000000   0.000000   0.000000   0.000000   0.000000
     7  H    0.000000   0.000000   0.000000   0.000000   0.000000   0.000000
     8  C    0.000000   0.000000   0.000000   0.000000   0.000000   0.000000
     9  O    0.000000   0.000000   0.000000   0.000000   0.000000   0.000000
    10  C    0.000000   0.000000   0.000000   0.000000   0.000000   0.000000
    11  H    0.000000   0.000000   0.000000   0.000000   0.000000   0.000000
    12  H    0.000000   0.000000   0.000000   0.000000   0.000000   0.000000
    13  H    0.792208   0.000000   0.000000   0.000000   0.000000   0.000000
    14  H    0.000000   0.708373   0.000000   0.000000   0.000000   0.000000
    15  H    0.000000   0.000000   0.860349   0.000000   0.000000   0.000000
    16  H    0.000000   0.000000   0.000000   0.813265   0.000000   0.000000
    17  H    0.000000   0.000000   0.000000   0.000000   0.842931   0.000000
    18  H    0.000000   0.000000   0.000000   0.000000   0.000000   0.781886
    19  H    0.000000   0.000000   0.000000   0.000000   0.000000   0.000000
    20  H    0.000000   0.000000   0.000000   0.000000   0.000000   0.000000
    21  O    0.000000   0.000000   0.000000   0.000000   0.000000   0.000000
    22  O    0.000000   0.000000   0.000000   0.000000   0.000000   0.000000
              19         20         21         22
     1  O    0.000000   0.000000   0.000000   0.000000
     2  C    0.000000   0.000000   0.000000   0.000000
     3  C    0.000000   0.000000   0.000000   0.000000
     4  C    0.000000   0.000000   0.000000   0.000000
     5  C    0.000000   0.000000   0.000000   0.000000
     6  C    0.000000   0.000000   0.000000   0.000000
     7  H    0.000000   0.000000   0.000000   0.000000
     8  C    0.000000   0.000000   0.000000   0.000000
     9  O    0.000000   0.000000   0.000000   0.000000
    10  C    0.000000   0.000000   0.000000   0.000000
    11  H    0.000000   0.000000   0.000000   0.000000
    12  H    0.000000   0.000000   0.000000   0.000000
    13  H    0.000000   0.000000   0.000000   0.000000
    14  H    0.000000   0.000000   0.000000   0.000000
    15  H    0.000000   0.000000   0.000000   0.000000
    16  H    0.000000   0.000000   0.000000   0.000000
    17  H    0.000000   0.000000   0.000000   0.000000
    18  H    0.000000   0.000000   0.000000   0.000000
    19  H    0.803813   0.000000   0.000000   0.000000
    20  H    0.000000   0.806310   0.000000   0.000000
    21  O    0.000000   0.000000   6.307610   0.000000
    22  O    0.000000   0.000000   0.000000   6.172699
          Atomic-Atomic Spin Densities.
               1          2          3          4          5          6
     1  O   -0.000263   0.000000   0.000000   0.000000   0.000000   0.000000
     2  C    0.000000   0.003112   0.000000   0.000000   0.000000   0.000000
     3  C    0.000000   0.000000  -0.047006   0.000000   0.000000   0.000000
     4  C    0.000000   0.000000   0.000000   1.023887   0.000000   0.000000
     5  C    0.000000   0.000000   0.000000   0.000000  -0.062490   0.000000
     6  C    0.000000   0.000000   0.000000   0.000000   0.000000   0.043322
     7  H    0.000000   0.000000   0.000000   0.000000   0.000000   0.000000
     8  C    0.000000   0.000000   0.000000   0.000000   0.000000   0.000000
     9  O    0.000000   0.000000   0.000000   0.000000   0.000000   0.000000
    10  C    0.000000   0.000000   0.000000   0.000000   0.000000   0.000000
    11  H    0.000000   0.000000   0.000000   0.000000   0.000000   0.000000
    12  H    0.000000   0.000000   0.000000   0.000000   0.000000   0.000000
    13  H    0.000000   0.000000   0.000000   0.000000   0.000000   0.000000
    14  H    0.000000   0.000000   0.000000   0.000000   0.000000   0.000000
    15  H    0.000000   0.000000   0.000000   0.000000   0.000000   0.000000
    16  H    0.000000   0.000000   0.000000   0.000000   0.000000   0.000000
    17  H    0.000000   0.000000   0.000000   0.000000   0.000000   0.000000
    18  H    0.000000   0.000000   0.000000   0.000000   0.000000   0.000000
    19  H    0.000000   0.000000   0.000000   0.000000   0.000000   0.000000
    20  H    0.000000   0.000000   0.000000   0.000000   0.000000   0.000000
    21  O    0.000000   0.000000   0.000000   0.000000   0.000000   0.000000
    22  O    0.000000   0.000000   0.000000   0.000000   0.000000   0.000000
               7          8          9         10         11         12
     1  O    0.000000   0.000000   0.000000   0.000000   0.000000   0.000000
     2  C    0.000000   0.000000   0.000000   0.000000   0.000000   0.000000
     3  C    0.000000   0.000000   0.000000   0.000000   0.000000   0.000000
     4  C    0.000000   0.000000   0.000000   0.000000   0.000000   0.000000
     5  C    0.000000   0.000000   0.000000   0.000000   0.000000   0.000000
     6  C    0.000000   0.000000   0.000000   0.000000   0.000000   0.000000
     7  H   -0.001276   0.000000   0.000000   0.000000   0.000000   0.000000
     8  C    0.000000  -0.000990   0.000000   0.000000   0.000000   0.000000
     9  O    0.000000   0.000000   0.000433   0.000000   0.000000   0.000000
    10  C    0.000000   0.000000   0.000000   0.001272   0.000000   0.000000
    11  H    0.000000   0.000000   0.000000   0.000000   0.000024   0.000000
    12  H    0.000000   0.000000   0.000000   0.000000   0.000000   0.025262
    13  H    0.000000   0.000000   0.000000   0.000000   0.000000   0.000000
    14  H    0.000000   0.000000   0.000000   0.000000   0.000000   0.000000
    15  H    0.000000   0.000000   0.000000   0.000000   0.000000   0.000000
    16  H    0.000000   0.000000   0.000000   0.000000   0.000000   0.000000
    17  H    0.000000   0.000000   0.000000   0.000000   0.000000   0.000000
    18  H    0.000000   0.000000   0.000000   0.000000   0.000000   0.000000
    19  H    0.000000   0.000000   0.000000   0.000000   0.000000   0.000000
    20  H    0.000000   0.000000   0.000000   0.000000   0.000000   0.000000
    21  O    0.000000   0.000000   0.000000   0.000000   0.000000   0.000000
    22  O    0.000000   0.000000   0.000000   0.000000   0.000000   0.000000
              13         14         15         16         17         18
     1  O    0.000000   0.000000   0.000000   0.000000   0.000000   0.000000
     2  C    0.000000   0.000000   0.000000   0.000000   0.000000   0.000000
     3  C    0.000000   0.000000   0.000000   0.000000   0.000000   0.000000
     4  C    0.000000   0.000000   0.000000   0.000000   0.000000   0.000000
     5  C    0.000000   0.000000   0.000000   0.000000   0.000000   0.000000
     6  C    0.000000   0.000000   0.000000   0.000000   0.000000   0.000000
     7  H    0.000000   0.000000   0.000000   0.000000   0.000000   0.000000
     8  C    0.000000   0.000000   0.000000   0.000000   0.000000   0.000000
     9  O    0.000000   0.000000   0.000000   0.000000   0.000000   0.000000
    10  C    0.000000   0.000000   0.000000   0.000000   0.000000   0.000000
    11  H    0.000000   0.000000   0.000000   0.000000   0.000000   0.000000
    12  H    0.000000   0.000000   0.000000   0.000000   0.000000   0.000000
    13  H    0.024593   0.000000   0.000000   0.000000   0.000000   0.000000
    14  H    0.000000  -0.001291   0.000000   0.000000   0.000000   0.000000
    15  H    0.000000   0.000000  -0.032923   0.000000   0.000000   0.000000
    16  H    0.000000   0.000000   0.000000   0.005048   0.000000   0.000000
    17  H    0.000000   0.000000   0.000000   0.000000   0.017148   0.000000
    18  H    0.000000   0.000000   0.000000   0.000000   0.000000  -0.000041
    19  H    0.000000   0.000000   0.000000   0.000000   0.000000   0.000000
    20  H    0.000000   0.000000   0.000000   0.000000   0.000000   0.000000
    21  O    0.000000   0.000000   0.000000   0.000000   0.000000   0.000000
    22  O    0.000000   0.000000   0.000000   0.000000   0.000000   0.000000
              19         20         21         22
     1  O    0.000000   0.000000   0.000000   0.000000
     2  C    0.000000   0.000000   0.000000   0.000000
     3  C    0.000000   0.000000   0.000000   0.000000
     4  C    0.000000   0.000000   0.000000   0.000000
     5  C    0.000000   0.000000   0.000000   0.000000
     6  C    0.000000   0.000000   0.000000   0.000000
     7  H    0.000000   0.000000   0.000000   0.000000
     8  C    0.000000   0.000000   0.000000   0.000000
     9  O    0.000000   0.000000   0.000000   0.000000
    10  C    0.000000   0.000000   0.000000   0.000000
    11  H    0.000000   0.000000   0.000000   0.000000
    12  H    0.000000   0.000000   0.000000   0.000000
    13  H    0.000000   0.000000   0.000000   0.000000
    14  H    0.000000   0.000000   0.000000   0.000000
    15  H    0.000000   0.000000   0.000000   0.000000
    16  H    0.000000   0.000000   0.000000   0.000000
    17  H    0.000000   0.000000   0.000000   0.000000
    18  H    0.000000   0.000000   0.000000   0.000000
    19  H   -0.000006   0.000000   0.000000   0.000000
    20  H    0.000000  -0.000049   0.000000   0.000000
    21  O    0.000000   0.000000   0.003490   0.000000
    22  O    0.000000   0.000000   0.000000  -0.001257
 Mulliken charges and spin densities:
               1          2
     1  O   -0.455739  -0.000263
     2  C    0.408722   0.003112
     3  C   -0.468225  -0.047006
     4  C   -0.138161   1.023887
     5  C   -0.324495  -0.062490
     6  C   -0.050787   0.043322
     7  H    0.167561  -0.001276
     8  C    0.551341  -0.000990
     9  O   -0.474203   0.000433
    10  C   -0.623563   0.001272
    11  H    0.099623   0.000024
    12  H    0.197370   0.025262
    13  H    0.207792   0.024593
    14  H    0.291627  -0.001291
    15  H    0.139651  -0.032923
    16  H    0.186735   0.005048
    17  H    0.157069   0.017148
    18  H    0.218114  -0.000041
    19  H    0.196187  -0.000006
    20  H    0.193690  -0.000049
    21  O   -0.307610   0.003490
    22  O   -0.172699  -0.001257
 Sum of Mulliken charges =   0.00000   1.00000
 Mulliken charges and spin densities with hydrogens summed into heavy atoms:
               1          2
     1  O   -0.455739  -0.000263
     2  C    0.508344   0.003136
     3  C   -0.063064   0.002849
     4  C    0.001490   0.990964
     5  C    0.019309  -0.040294
     6  C    0.116774   0.042046
     8  C    0.551341  -0.000990
     9  O   -0.474203   0.000433
    10  C   -0.015572   0.001177
    21  O   -0.015982   0.002199
    22  O   -0.172699  -0.001257
 APT charges:
               1
     1  O   -0.707544
     2  C    0.925130
     3  C   -0.774580
     4  C    0.027831
     5  C   -0.456653
     6  C   -0.053610
     7  H    0.122402
     8  C    1.176921
     9  O   -0.772969
    10  C   -0.973710
    11  H    0.021358
    12  H    0.215160
    13  H    0.217883
    14  H    0.276769
    15  H    0.138725
    16  H    0.201907
    17  H    0.158271
    18  H    0.262615
    19  H    0.234094
    20  H    0.241039
    21  O   -0.349276
    22  O   -0.131740
 Sum of APT charges =   0.00002
 APT charges with hydrogens summed into heavy atoms:
               1
     1  O   -0.707544
     2  C    0.946488
     3  C   -0.341537
     4  C    0.166556
     5  C   -0.096475
     6  C    0.068792
     8  C    1.176921
     9  O   -0.772969
    10  C   -0.235961
    21  O   -0.072507
    22  O   -0.131740
 Charge=              0.0000 electrons
 Dipole moment (field-independent basis, Debye):
    X=              1.2189    Y=              0.3552    Z=             -1.1211  Tot=              1.6937
 N-N= 3.885712208937D+02 E-N=-6.973330886851D+02  KE=-3.718049599022D+01
  Exact polarizability:  52.462  -0.262  67.926   3.484 -13.807  74.882
 Approx polarizability:  37.409  -1.552  54.134  -2.541 -11.901  47.153
 Leave Link  601 at Wed Feb 17 07:56:39 2021, MaxMem=    33554432 cpu:         0.0
 (Enter /cm/shared/apps/Gaussian09/g09/l701.exe)
 Compute integral second derivatives.
 ... and contract with generalized density number  0.
 Leave Link  701 at Wed Feb 17 07:56:40 2021, MaxMem=    33554432 cpu:         0.1
 (Enter /cm/shared/apps/Gaussian09/g09/l702.exe)
 L702 exits ... SP integral derivatives will be done elsewhere.
 Leave Link  702 at Wed Feb 17 07:56:40 2021, MaxMem=    33554432 cpu:         0.0
 (Enter /cm/shared/apps/Gaussian09/g09/l703.exe)
 Compute integral second derivatives, UseDBF=F ICtDFT=           0.
 Integral derivatives from FoFJK, PRISM(SPDF).
 Calling FoFJK, ICntrl=    100127 FMM=F ISym2X=0 I1Cent= 0 IOpClX= 1 NMat=1 NMatS=1 NMatT=0.
 FoFJK:  IHMeth=40 ICntrl=  100127 DoSepK=F KAlg= 0 I1Cent=   0 FoldK=F
 IRaf=         0 NMat=   1 IRICut=       1 DoRegI=T DoRafI=F ISym2E= 0.
 FoFCou: FMM=F IPFlag=           0 FMFlag=      100000 FMFlg1=         800
         NFxFlg=           0 DoJE=F BraDBF=F KetDBF=F FulRan=T
         wScrn=  0.000000 ICntrl=  100127 IOpCl=  1 I1Cent=           0 NGrid=           0
         NMat0=    1 NMatS0=      1 NMatT0=    0 NMatD0=    1 NMtDS0=    0 NMtDT0=    0
 Symmetry not used in FoFCou.
 Leave Link  703 at Wed Feb 17 07:56:40 2021, MaxMem=    33554432 cpu:         0.0
 (Enter /cm/shared/apps/Gaussian09/g09/l716.exe)
 Dipole        = 4.79547111D-01 1.39728515D-01-4.41090401D-01
 Polarizability= 5.24618903D+01-2.62203924D-01 6.79259153D+01
                 3.48432422D+00-1.38074387D+01 7.48818887D+01
 HyperPolar    = 2.39999923D+01 1.15297478D+01 3.41851793D+00
                 3.32834234D+01 5.23593883D+00 1.67738840D+01
                -3.89016669D+00-1.38694663D+01 1.55260664D+01
                 1.98977649D+01
 -------------------------------------------------------------------
 Center     Atomic                   Forces (Hartrees/Bohr)
 Number     Number              X              Y              Z
 -------------------------------------------------------------------
      1        8           0.000000057   -0.000000565    0.000000458
      2        6          -0.000000085    0.000000345    0.000000015
      3        6           0.000000143   -0.000000121   -0.000000045
      4        6          -0.000000237    0.000000149    0.000000082
      5        6           0.000000147    0.000000208   -0.000000104
      6        6           0.000000151   -0.000000095   -0.000000119
      7        1           0.000000195   -0.000000126   -0.000000126
      8        6           0.000000002   -0.000000223    0.000000099
      9        8          -0.000000015    0.000000825   -0.000000290
     10        6          -0.000000177   -0.000000190   -0.000000078
     11        1          -0.000000041    0.000000217    0.000000082
     12        1           0.000000243    0.000000010   -0.000000023
     13        1          -0.000000017   -0.000000236   -0.000000089
     14        1           0.000000015    0.000000010    0.000000197
     15        1          -0.000000155    0.000000160    0.000000099
     16        1          -0.000000055    0.000000230   -0.000000089
     17        1           0.000000235    0.000000031   -0.000000063
     18        1          -0.000000129   -0.000000115    0.000000147
     19        1          -0.000000165    0.000000068   -0.000000142
     20        1           0.000000086   -0.000000172   -0.000000117
     21        8          -0.000000335    0.000000032    0.000000015
     22        8           0.000000138   -0.000000446    0.000000091
 -------------------------------------------------------------------
 Cartesian Forces:  Max     0.000000825 RMS     0.000000205
 Leave Link  716 at Wed Feb 17 07:56:40 2021, MaxMem=    33554432 cpu:         0.0
 (Enter /cm/shared/apps/Gaussian09/g09/l103.exe)

 GradGradGradGradGradGradGradGradGradGradGradGradGradGradGradGradGradGrad
 Berny optimization.
 Search for a saddle point.
 Step number   1 out of a maximum of  100
 All quantities printed in internal units (Hartrees-Bohrs-Radians)
 Swapping is turned off.
 Second derivative matrix not updated -- analytic derivatives used.
 ITU=  0
     Eigenvalues ---   -0.00026   0.00007   0.00009   0.00025   0.00050
     Eigenvalues ---    0.00086   0.00293   0.00439   0.00604   0.00672
     Eigenvalues ---    0.00946   0.01577   0.01842   0.02103   0.03229
     Eigenvalues ---    0.03584   0.03652   0.03999   0.04589   0.04745
     Eigenvalues ---    0.05232   0.05480   0.05778   0.06198   0.06594
     Eigenvalues ---    0.07140   0.07812   0.08332   0.09366   0.10481
     Eigenvalues ---    0.11823   0.12647   0.14998   0.16343   0.17772
     Eigenvalues ---    0.18006   0.18763   0.23206   0.25206   0.26025
     Eigenvalues ---    0.29816   0.37286   0.45285   0.46519   0.48693
     Eigenvalues ---    0.51363   0.53206   0.54514   0.56482   0.57915
     Eigenvalues ---    0.58338   0.59512   0.60275   0.68086   0.68895
     Eigenvalues ---    0.72068   0.77780   0.87478   1.66430   1.67463
 Eigenvectors required to have negative eigenvalues:
                          Y14       X16       X1        Y17       X14
   1                    0.30966  -0.29429   0.26115   0.25255  -0.23638
                          Z7        Z15       X21       Y12       Z9
   1                    0.21803   0.17956  -0.17476  -0.17415  -0.17062
 RFO step:  Lambda0=5.459277778D-14 Lambda= 0.00000000D+00.
 Linear search not attempted -- option 19 set.
 TrRot= -0.000004 -0.000001 -0.000002  0.000000 -0.000002  0.000000
 Variable       Old X    -DE/DX   Delta X   Delta X   Delta X     New X
                                 (Linear)    (Quad)   (Total)
    X1        2.14447   0.00000   0.00000  -0.00011  -0.00013   2.14434
    Y1       -1.66552   0.00000   0.00000  -0.00002  -0.00003  -1.66555
    Z1        7.80377   0.00000   0.00000  -0.00002  -0.00002   7.80375
    X2        1.94671   0.00000   0.00000   0.00003   0.00001   1.94672
    Y2        0.14351   0.00000   0.00000   0.00001   0.00001   0.14351
    Z2        6.42141   0.00000   0.00000   0.00000   0.00000   6.42141
    X3        2.58649   0.00000   0.00000   0.00001   0.00000   2.58648
    Y3       -0.01046   0.00000   0.00000   0.00000   0.00000  -0.01047
    Z3        3.63965   0.00000   0.00000  -0.00001   0.00000   3.63965
    X4        1.14651   0.00000   0.00000   0.00000  -0.00001   1.14650
    Y4        1.76017   0.00000   0.00000   0.00000   0.00000   1.76017
    Z4        2.04254   0.00000   0.00000   0.00000   0.00000   2.04254
    X5        1.58263   0.00000   0.00000  -0.00001  -0.00001   1.58262
    Y5        1.86144   0.00000   0.00000   0.00001   0.00001   1.86145
    Z5       -0.71424   0.00000   0.00000   0.00000   0.00000  -0.71423
    X6        0.39054   0.00000   0.00000   0.00000   0.00000   0.39055
    Y6       -0.32237   0.00000   0.00000   0.00001   0.00001  -0.32236
    Z6       -2.22358   0.00000   0.00000   0.00000   0.00000  -2.22358
    X7        1.87856   0.00000   0.00000   0.00001   0.00001   1.87858
    Y7       -1.34338   0.00000   0.00000   0.00002   0.00001  -1.34337
    Z7       -3.34008   0.00000   0.00000   0.00000   0.00000  -3.34008
    X8       -1.67601   0.00000   0.00000   0.00000   0.00000  -1.67601
    Y8        0.61604   0.00000   0.00000   0.00000   0.00000   0.61604
    Z8       -4.06892   0.00000   0.00000   0.00000  -0.00001  -4.06893
    X9       -1.70907   0.00000   0.00000   0.00000   0.00001  -1.70906
    Y9        2.79592   0.00000   0.00000   0.00000   0.00000   2.79592
    Z9       -4.74972   0.00000   0.00000  -0.00001  -0.00002  -4.74974
   X10       -3.49223   0.00000   0.00000   0.00000   0.00000  -3.49223
   Y10       -1.33628   0.00000   0.00000  -0.00001   0.00000  -1.33629
   Z10       -4.97965   0.00000   0.00000   0.00001   0.00000  -4.97965
   X11        1.31129   0.00000   0.00000   0.00017   0.00015   1.31144
   Y11        2.00090   0.00000   0.00000   0.00005   0.00005   2.00095
   Z11        7.11409   0.00000   0.00000   0.00002   0.00003   7.11412
   X12        4.66128   0.00000   0.00000   0.00001   0.00000   4.66127
   Y12        0.30493   0.00000   0.00000  -0.00001  -0.00001   0.30492
   Z12        3.41677   0.00000   0.00000  -0.00002  -0.00001   3.41675
   X13        2.32926   0.00000   0.00000  -0.00001  -0.00002   2.32924
   Y13       -1.99014   0.00000   0.00000   0.00000   0.00000  -1.99014
   Z13        2.93431   0.00000   0.00000   0.00000   0.00000   2.93432
   X14       -2.17103   0.00000   0.00000   0.00002   0.00001  -2.17102
   Y14       -1.56156   0.00000   0.00000  -0.00004  -0.00004  -1.56160
   Z14        2.27649   0.00000   0.00000   0.00001   0.00000   2.27650
   X15       -0.22597   0.00000   0.00000  -0.00001  -0.00001  -0.22598
   Y15        3.01218   0.00000   0.00000  -0.00001  -0.00001   3.01217
   Z15        2.87091   0.00000   0.00000   0.00001   0.00001   2.87092
   X16        0.85888   0.00000   0.00000  -0.00003  -0.00002   0.85886
   Y16        3.69503   0.00000   0.00000   0.00001   0.00001   3.69504
   Z16       -1.48724   0.00000   0.00000   0.00001   0.00001  -1.48723
   X17        3.64709   0.00000   0.00000  -0.00001  -0.00001   3.64708
   Y17        1.90647   0.00000   0.00000   0.00003   0.00003   1.90650
   Z17       -1.10839   0.00000   0.00000   0.00000   0.00000  -1.10839
   X18       -4.49003   0.00000   0.00000   0.00000   0.00000  -4.49004
   Y18       -2.23118   0.00000   0.00000   0.00000   0.00001  -2.23118
   Z18       -3.37431   0.00000   0.00000   0.00002   0.00001  -3.37430
   X19       -4.92763   0.00000   0.00000   0.00000   0.00000  -4.92762
   Y19       -0.51990   0.00000   0.00000  -0.00001  -0.00001  -0.51991
   Z19       -6.24059   0.00000   0.00000   0.00000  -0.00001  -6.24059
   X20       -2.54847   0.00000   0.00000   0.00000   0.00000  -2.54847
   Y20       -2.87861   0.00000   0.00000  -0.00001  -0.00001  -2.87862
   Z20       -5.99695   0.00000   0.00000   0.00002   0.00001  -5.99693
   X21       -2.77370   0.00000   0.00000   0.00002   0.00001  -2.77369
   Y21       -1.80867   0.00000   0.00000  -0.00001  -0.00001  -1.80868
   Z21        0.49098   0.00000   0.00000   0.00001   0.00000   0.49098
   X22       -0.46957   0.00000   0.00000   0.00002   0.00001  -0.46956
   Y22       -2.42851   0.00000   0.00000   0.00000   0.00000  -2.42851
   Z22       -0.72726   0.00000   0.00000   0.00000  -0.00001  -0.72727
         Item               Value     Threshold  Converged?
 Maximum Force            0.000001     0.000450     YES
 RMS     Force            0.000000     0.000300     YES
 Maximum Displacement     0.000155     0.001800     YES
 RMS     Displacement     0.000028     0.001200     YES
 Predicted change in Energy=-7.285285D-12
 Optimization completed.
    -- Stationary point found.
 Lowest energy point so far.  Saving SCF results.
 GradGradGradGradGradGradGradGradGradGradGradGradGradGradGradGradGradGrad

 Largest change from initial coordinates is atom    0       0.000 Angstoms.
 Leave Link  103 at Wed Feb 17 07:56:40 2021, MaxMem=    33554432 cpu:         0.0
 (Enter /cm/shared/apps/Gaussian09/g09/l202.exe)
                          Input orientation:                          
 ---------------------------------------------------------------------
 Center     Atomic      Atomic             Coordinates (Angstroms)
 Number     Number       Type             X           Y           Z
 ---------------------------------------------------------------------
      1          8           0        1.134804   -0.881357    4.129577
      2          6           0        1.030153    0.075940    3.398065
      3          6           0        1.368711   -0.005536    1.926022
      4          6           0        0.606707    0.931441    1.080864
      5          6           0        0.837492    0.985031   -0.377957
      6          6           0        0.206666   -0.170589   -1.176668
      7          1           0        0.994093   -0.710886   -1.767493
      8          6           0       -0.886905    0.325993   -2.153182
      9          8           0       -0.904400    1.479539   -2.513446
     10          6           0       -1.848010   -0.707131   -2.635120
     11          1           0        0.693902    1.058833    3.764615
     12          1           0        2.466642    0.161363    1.808075
     13          1           0        1.232591   -1.053135    1.552773
     14          1           0       -1.148861   -0.826343    1.204667
     15          1           0       -0.119576    1.593975    1.519221
     16          1           0        0.454501    1.955324   -0.787015
     17          1           0        1.929956    1.008860   -0.586536
     18          1           0       -2.376023   -1.180691   -1.785608
     19          1           0       -2.607588   -0.275119   -3.302377
     20          1           0       -1.348592   -1.523293   -3.173447
     21          8           0       -1.467777   -0.957106    0.259818
     22          8           0       -0.248486   -1.285112   -0.384849
 ---------------------------------------------------------------------
                    Distance matrix (angstroms):
                    1          2          3          4          5
     1  O    0.000000
     2  C    1.209330   0.000000
     3  C    2.382735   1.512670   0.000000
     4  C    3.586052   2.506114   1.474065   0.000000
     5  C    4.887705   3.888689   2.563540   1.477936   0.000000
     6  C    5.433495   4.654792   3.317270   2.543808   1.539916
     7  H    5.901211   5.225264   3.778877   3.310656   2.198061
     8  C    6.709550   5.878263   4.673074   3.613378   2.561114
     9  O    7.339070   6.376406   5.203976   3.937376   2.799829
    10  C    7.395178   6.730255   5.625259   4.745429   3.894884
    11  H    2.022852   1.101591   2.229052   2.688187   4.145717
    12  H    2.872356   2.144497   1.116790   2.140377   2.848033
    13  H    2.584374   2.172762   1.120405   2.133769   2.835127
    14  H    3.711233   3.220747   2.744493   2.487398   3.119515
    15  H    3.809816   2.675138   2.222369   1.076381   2.210447
    16  H    5.716857   4.623673   3.470061   2.135527   1.120481
    17  H    5.142656   4.190111   2.767118   2.130071   1.112452
    18  H    6.885123   6.328635   5.401871   4.644830   4.122926
    19  H    8.343079   7.632321   6.574175   5.567790   4.691353
    20  H    7.740381   7.169431   5.974270   5.286594   4.345736
    21  O    4.664140   4.141912   3.424527   2.923049   3.081059
    22  O    4.738834   4.218746   3.097218   2.791554   2.516535
                    6          7          8          9         10
     6  C    0.000000
     7  H    1.122958   0.000000
     8  C    1.547925   2.182207   0.000000
     9  O    2.396741   2.993107   1.208621   0.000000
    10  C    2.576170   2.971588   1.491084   2.384687   0.000000
    11  H    5.115189   5.816033   6.168981   6.491966   7.108907
    12  H    3.758507   3.964076   5.192777   5.637114   6.253997
    13  H    3.046516   3.346368   4.486464   5.245504   5.210400
    14  H    2.817486   3.665967   3.559726   4.381919   3.904738
    15  H    3.238509   4.165949   3.960191   4.109921   5.053822
    16  H    2.175490   2.891569   2.514061   2.248010   3.975640
    17  H    2.170042   2.286488   3.294753   3.459494   4.627564
    18  H    2.839260   3.402752   2.150042   3.126059   1.106674
    19  H    3.528398   3.939272   2.154700   2.569452   1.099466
    20  H    2.869801   2.850418   2.161933   3.106430   1.097877
    21  O    2.342192   3.198658   2.793980   3.734385   2.930482
    22  O    1.440938   1.945621   2.475933   3.550274   2.820684
                   11         12         13         14         15
    11  H    0.000000
    12  H    2.788568   0.000000
    13  H    3.105293   1.750161   0.000000
    14  H    3.674643   3.796251   2.417422   0.000000
    15  H    2.447431   2.970579   2.972655   2.648832   0.000000
    16  H    4.645250   3.741858   3.889840   3.778258   2.403927
    17  H    4.523587   2.596236   3.052013   4.006930   2.996190
    18  H    6.726432   6.177950   4.917637   3.251651   4.869520
    19  H    7.913384   7.214918   6.238971   4.769190   5.738599
    20  H    7.679575   6.496894   5.405618   4.437738   5.766193
    21  O    4.584809   4.373526   2.995487   1.005757   3.148295
    22  O    4.858006   3.777978   2.449853   1.883535   3.454163
                   16         17         18         19         20
    16  H    0.000000
    17  H    1.764356   0.000000
    18  H    4.340926   4.977284   0.000000
    19  H    4.547341   5.441847   1.781649   0.000000
    20  H    4.587698   4.883931   1.760422   1.777535   0.000000
    21  O    3.643249   4.015710   2.249148   3.801777   3.481678
    22  O    3.340113   3.169952   2.549401   3.885540   3.007199
                   21         22
    21  O    0.000000
    22  O    1.417693   0.000000
 Symmetry turned off by external request.
 Stoichiometry    C7H11O4(2)
 Framework group  C1[X(C7H11O4)]
 Deg. of freedom    60
 Full point group                 C1      NOp   1
 Rotational constants (GHZ):      2.4274849      0.5336198      0.4749852
 Leave Link  202 at Wed Feb 17 07:56:40 2021, MaxMem=    33554432 cpu:         0.0
 (Enter /cm/shared/apps/Gaussian09/g09/l716.exe)
 Dipole        = 4.79547111D-01 1.39728515D-01-4.41090401D-01
 Polarizability= 5.24618903D+01-2.62203924D-01 6.79259153D+01
                 3.48432422D+00-1.38074387D+01 7.48818887D+01
 HyperPolar    = 2.39999923D+01 1.15297478D+01 3.41851793D+00
                 3.32834234D+01 5.23593883D+00 1.67738840D+01
                -3.89016669D+00-1.38694663D+01 1.55260664D+01
                 1.98977649D+01
 Full mass-weighted force constant matrix:
 Low frequencies ---  -38.4041   -1.3610   -0.4816   -0.1369    0.8794    1.3223
 Low frequencies ---    1.9789   16.7900   33.0004
 ******    1 imaginary frequencies (negative Signs) ****** 
 Diagonal vibrational polarizability:
     1062.2326736     175.3983996     368.6925091
 Harmonic frequencies (cm**-1), IR intensities (KM/Mole), Raman scattering
 activities (A**4/AMU), depolarization ratios for plane and unpolarized
 incident light, reduced masses (AMU), force constants (mDyne/A),
 and normal coordinates:
                      1                      2                      3
                      A                      A                      A
 Frequencies --    -38.4040                16.7898                33.0003
 Red. masses --      3.7809                 6.2270                 2.2994
 Frc consts  --      0.0033                 0.0010                 0.0015
 IR Inten    --      0.9785                11.9498                11.0585
  Atom  AN      X      Y      Z        X      Y      Z        X      Y      Z
     1   8     0.12  -0.09  -0.02     0.40   0.17   0.21    -0.06   0.04   0.01
     2   6     0.10  -0.07   0.00    -0.09   0.01   0.07     0.05   0.04  -0.01
     3   6    -0.04  -0.06  -0.03    -0.11  -0.05   0.07     0.01  -0.04  -0.01
     4   6     0.00   0.07   0.08    -0.10  -0.10   0.01     0.07   0.00  -0.02
     5   6    -0.14   0.12   0.06     0.01  -0.10   0.02     0.06  -0.04  -0.03
     6   6    -0.02   0.04   0.08    -0.02  -0.04  -0.03     0.00  -0.03   0.00
     7   1     0.04   0.02   0.19    -0.03  -0.05  -0.03    -0.03  -0.06  -0.01
     8   6     0.05  -0.05  -0.05     0.02   0.04  -0.03    -0.02  -0.01   0.02
     9   8     0.03  -0.07  -0.11     0.05   0.06   0.04    -0.12   0.03   0.16
    10   6     0.13  -0.11  -0.08     0.02   0.08  -0.13     0.10  -0.05  -0.13
    11   1     0.19  -0.06   0.05    -0.55  -0.10  -0.07     0.19   0.09  -0.03
    12   1    -0.03  -0.21  -0.13    -0.10  -0.08   0.06     0.02  -0.14  -0.05
    13   1    -0.22  -0.03  -0.06    -0.10  -0.07   0.12    -0.09  -0.04   0.02
    14   1    -0.20   0.30  -0.01    -0.14   0.01  -0.12    -0.05   0.11  -0.01
    15   1     0.15   0.16   0.18    -0.16  -0.13  -0.05     0.11   0.05  -0.03
    16   1    -0.30   0.07   0.10     0.11  -0.06   0.01     0.09  -0.03  -0.04
    17   1    -0.15   0.28  -0.03     0.03  -0.17   0.09     0.06  -0.09  -0.04
    18   1     0.09  -0.10  -0.10     0.01   0.01  -0.18     0.36  -0.45  -0.19
    19   1     0.16  -0.17  -0.16     0.03   0.14  -0.10    -0.11   0.02   0.16
    20   1     0.20  -0.11  -0.02     0.02   0.13  -0.20     0.18   0.25  -0.52
    21   8    -0.13   0.11  -0.01    -0.11  -0.04  -0.12    -0.03   0.04  -0.01
    22   8    -0.08   0.09   0.11    -0.08  -0.05  -0.07    -0.03   0.00   0.03
                      4                      5                      6
                      A                      A                      A
 Frequencies --     46.1819                63.8799                85.2525
 Red. masses --      2.6322                 1.6655                 1.8608
 Frc consts  --      0.0033                 0.0040                 0.0080
 IR Inten    --      4.3518                 2.2365                 1.3999
  Atom  AN      X      Y      Z        X      Y      Z        X      Y      Z
     1   8    -0.08   0.08   0.06    -0.01   0.03   0.02    -0.01  -0.03  -0.03
     2   6     0.23   0.10   0.05    -0.03  -0.01  -0.02     0.02   0.01   0.02
     3   6     0.01  -0.07   0.01    -0.08  -0.08  -0.03     0.14   0.10   0.04
     4   6    -0.06  -0.09   0.05     0.07   0.05  -0.02    -0.02  -0.06   0.00
     5   6    -0.07   0.00   0.05     0.05   0.01  -0.03     0.01  -0.05   0.01
     6   6    -0.02   0.01  -0.01     0.03   0.01  -0.01    -0.01  -0.03   0.00
     7   1     0.02   0.06  -0.01     0.01   0.01  -0.03    -0.02  -0.05   0.02
     8   6     0.00   0.03  -0.02    -0.01   0.00   0.03     0.00  -0.01  -0.01
     9   8     0.02   0.03  -0.02    -0.07   0.02   0.08    -0.05   0.01   0.07
    10   6    -0.01   0.04  -0.03     0.02  -0.02   0.03     0.06  -0.03  -0.08
    11   1     0.71   0.26   0.07    -0.02   0.01  -0.06    -0.03  -0.02   0.04
    12   1     0.00  -0.17  -0.17    -0.05  -0.28  -0.06     0.11   0.35   0.11
    13   1    -0.14  -0.09   0.12    -0.27  -0.06  -0.02     0.37   0.08   0.02
    14   1    -0.03  -0.16  -0.05    -0.05   0.20  -0.08    -0.06  -0.06   0.01
    15   1    -0.13  -0.18   0.08     0.21   0.19  -0.01    -0.17  -0.20  -0.03
    16   1    -0.12   0.01   0.11     0.07   0.01  -0.05     0.03  -0.03   0.01
    17   1    -0.07   0.07   0.05     0.05  -0.02  -0.03     0.01  -0.07   0.01
    18   1    -0.12   0.15  -0.03    -0.29   0.31   0.02    -0.24   0.24  -0.11
    19   1     0.07   0.03  -0.13     0.27  -0.13  -0.32     0.30  -0.12  -0.41
    20   1    -0.01  -0.04   0.10     0.07  -0.26   0.45     0.14  -0.22   0.29
    21   8    -0.01  -0.09  -0.06     0.00  -0.03  -0.06    -0.06   0.07  -0.01
    22   8     0.00  -0.03  -0.07     0.05   0.01   0.02    -0.07  -0.01   0.00
                      7                      8                      9
                      A                      A                      A
 Frequencies --    135.7721               171.0030               190.8957
 Red. masses --      4.2574                 4.3435                 4.1774
 Frc consts  --      0.0462                 0.0748                 0.0897
 IR Inten    --     16.0535                 2.7926                 3.7890
  Atom  AN      X      Y      Z        X      Y      Z        X      Y      Z
     1   8     0.01   0.02   0.07    -0.01  -0.02   0.05    -0.06   0.04   0.18
     2   6    -0.02  -0.03   0.00     0.02  -0.02   0.03    -0.05  -0.05   0.06
     3   6    -0.11  -0.13  -0.02     0.03  -0.03   0.04     0.19  -0.07   0.10
     4   6    -0.08  -0.11  -0.01    -0.05  -0.12   0.00     0.26  -0.03   0.07
     5   6    -0.01   0.00   0.00     0.07   0.01   0.02    -0.03   0.02   0.02
     6   6     0.02   0.03  -0.06     0.10   0.04  -0.05    -0.07   0.08  -0.04
     7   1     0.02   0.04  -0.07     0.10   0.07  -0.07    -0.06   0.12  -0.07
     8   6     0.00   0.01  -0.05    -0.01  -0.03   0.03    -0.07   0.03  -0.07
     9   8    -0.09   0.01  -0.04    -0.09  -0.05  -0.03    -0.11   0.00  -0.17
    10   6     0.06  -0.07  -0.02    -0.04  -0.09   0.21    -0.02  -0.04  -0.03
    11   1     0.01   0.00  -0.05     0.03  -0.01   0.02    -0.27  -0.07  -0.08
    12   1    -0.10  -0.23  -0.08     0.02   0.06   0.04     0.20  -0.02   0.25
    13   1    -0.20  -0.14   0.03     0.11  -0.05   0.06     0.28  -0.06   0.07
    14   1     0.37  -0.49   0.24    -0.28   0.01  -0.18     0.11   0.22  -0.07
    15   1    -0.17  -0.19  -0.02    -0.27  -0.33  -0.04     0.48   0.15   0.18
    16   1    -0.01   0.01   0.04     0.09   0.03   0.06    -0.15   0.03   0.16
    17   1     0.00   0.02   0.04     0.08   0.02   0.09    -0.06   0.10  -0.15
    18   1     0.00   0.04   0.00     0.17  -0.18   0.29     0.02  -0.05  -0.02
    19   1     0.12  -0.17  -0.15    -0.22  -0.12   0.41    -0.05  -0.10  -0.04
    20   1     0.13  -0.14   0.14    -0.09  -0.02   0.06     0.02  -0.02  -0.02
    21   8     0.19   0.25   0.20    -0.06   0.19  -0.28     0.01  -0.05   0.00
    22   8    -0.02   0.02  -0.11     0.08   0.09   0.01    -0.03   0.03  -0.10
                     10                     11                     12
                      A                      A                      A
 Frequencies --    242.5267               258.0805               280.3171
 Red. masses --      3.0890                 3.6239                 2.0102
 Frc consts  --      0.1070                 0.1422                 0.0931
 IR Inten    --     13.9544                 0.3607                28.7764
  Atom  AN      X      Y      Z        X      Y      Z        X      Y      Z
     1   8    -0.04   0.12   0.02     0.00   0.01  -0.01     0.00  -0.03   0.03
     2   6    -0.07  -0.03  -0.16     0.00  -0.01  -0.04     0.02  -0.01   0.05
     3   6     0.12  -0.13  -0.11     0.00  -0.05  -0.04    -0.02   0.01   0.04
     4   6     0.01  -0.15  -0.03    -0.05  -0.10  -0.05    -0.06  -0.06  -0.01
     5   6    -0.11   0.09  -0.02     0.17   0.00  -0.01    -0.01  -0.03  -0.02
     6   6     0.02  -0.01   0.03    -0.08   0.12   0.04     0.00  -0.02  -0.05
     7   1     0.05  -0.01   0.09    -0.17   0.01  -0.01    -0.02   0.00  -0.08
     8   6     0.03  -0.02   0.02    -0.04   0.11   0.00    -0.03  -0.03  -0.04
     9   8     0.06   0.00   0.09    -0.04   0.06  -0.15    -0.03  -0.03  -0.02
    10   6    -0.02   0.05  -0.02     0.10  -0.03   0.03    -0.08   0.04  -0.12
    11   1    -0.31  -0.03  -0.36     0.00   0.00  -0.07     0.08   0.00   0.08
    12   1     0.10  -0.03  -0.06    -0.01  -0.03  -0.05    -0.03   0.06   0.02
    13   1     0.22  -0.14  -0.11     0.01  -0.06  -0.01     0.04  -0.01   0.06
    14   1    -0.10  -0.12   0.06    -0.13  -0.07   0.10     0.10   0.85  -0.09
    15   1    -0.09  -0.31   0.07    -0.34  -0.37  -0.14    -0.11  -0.10  -0.04
    16   1    -0.38   0.04   0.12     0.44   0.08  -0.03     0.02  -0.02   0.00
    17   1    -0.15   0.36  -0.15     0.19  -0.30   0.09     0.00  -0.05   0.02
    18   1    -0.06   0.07  -0.03     0.14  -0.08   0.02    -0.16   0.08  -0.15
    19   1     0.02   0.11  -0.02     0.06  -0.18  -0.03    -0.01   0.13  -0.14
    20   1    -0.06   0.03  -0.02     0.24   0.01   0.08    -0.13   0.02  -0.12
    21   8    -0.01   0.00   0.01    -0.08  -0.16   0.10     0.08   0.03   0.03
    22   8     0.06   0.03   0.12     0.01   0.13   0.13     0.11   0.05   0.10
                     13                     14                     15
                      A                      A                      A
 Frequencies --    306.7041               435.1221               449.9183
 Red. masses --      1.7553                 3.2193                 3.4646
 Frc consts  --      0.0973                 0.3591                 0.4132
 IR Inten    --     40.3167                 1.9408                 6.5962
  Atom  AN      X      Y      Z        X      Y      Z        X      Y      Z
     1   8    -0.01   0.02  -0.02    -0.01   0.07  -0.07     0.00  -0.01   0.01
     2   6    -0.01   0.00  -0.04    -0.01   0.00  -0.14     0.00   0.00   0.01
     3   6     0.01  -0.01  -0.03     0.06  -0.05  -0.08    -0.01   0.00   0.01
     4   6    -0.06  -0.04   0.00    -0.06   0.05   0.16     0.03   0.01  -0.02
     5   6    -0.03  -0.01   0.01     0.07  -0.03   0.20     0.14   0.15   0.01
     6   6     0.02  -0.01  -0.01    -0.02   0.06   0.11     0.15   0.07   0.04
     7   1     0.04  -0.02   0.03     0.00   0.20   0.00     0.24  -0.05   0.27
     8   6     0.05   0.04   0.00    -0.07  -0.03   0.13     0.17  -0.14  -0.06
     9   8     0.02   0.04   0.03    -0.01  -0.09  -0.06    -0.12  -0.12   0.03
    10   6     0.08  -0.04   0.11    -0.04   0.01  -0.06    -0.06   0.06  -0.04
    11   1    -0.03   0.01  -0.07    -0.14   0.00  -0.23     0.00   0.00   0.02
    12   1     0.00   0.05  -0.04     0.05  -0.05  -0.13     0.00  -0.07   0.01
    13   1     0.07  -0.02  -0.03     0.03  -0.02  -0.15    -0.07   0.00   0.01
    14   1     0.18   0.85  -0.14     0.07   0.18  -0.07     0.05   0.05   0.02
    15   1    -0.05  -0.05   0.02     0.00   0.06   0.22    -0.28  -0.29  -0.08
    16   1    -0.05  -0.01   0.02     0.36   0.02   0.08     0.06   0.11   0.01
    17   1    -0.03   0.04   0.03     0.12  -0.32   0.38     0.13   0.22   0.02
    18   1     0.18  -0.04   0.18    -0.19  -0.08  -0.22    -0.14   0.20  -0.02
    19   1    -0.01  -0.14   0.16     0.09   0.14  -0.14     0.00   0.38   0.07
    20   1     0.10  -0.03   0.13     0.03   0.09  -0.12    -0.40  -0.05  -0.16
    21   8     0.00  -0.03   0.04     0.05   0.05  -0.04    -0.06  -0.08   0.07
    22   8    -0.09  -0.03  -0.09     0.00  -0.06  -0.06    -0.11   0.06  -0.09
                     16                     17                     18
                      A                      A                      A
 Frequencies --    484.2505               491.3650               541.0400
 Red. masses --      4.9546                 3.1810                 3.4927
 Frc consts  --      0.6845                 0.4525                 0.6024
 IR Inten    --     16.3832                22.1402                 4.9093
  Atom  AN      X      Y      Z        X      Y      Z        X      Y      Z
     1   8    -0.04  -0.02   0.23    -0.04   0.02   0.18     0.00  -0.02   0.06
     2   6     0.08  -0.18  -0.01     0.08  -0.16  -0.08     0.01  -0.04   0.03
     3   6    -0.02   0.05  -0.08     0.00   0.03  -0.11    -0.03   0.03  -0.01
     4   6    -0.03   0.10  -0.09    -0.12   0.11   0.02     0.04   0.02  -0.10
     5   6     0.07   0.14  -0.10    -0.03  -0.07   0.01     0.01   0.06  -0.09
     6   6    -0.07   0.11   0.01     0.05  -0.07  -0.02     0.03  -0.08   0.10
     7   1    -0.09   0.18  -0.09     0.06  -0.14   0.06    -0.03  -0.05   0.01
     8   6    -0.17  -0.06   0.09     0.12   0.02  -0.09    -0.02   0.08   0.24
[...]
 .00028143,-0.00056048,0.02788854,0.03629326,-0.00176106,0.00032134,-0.
 00204717,0.02918113,0.00384859,-0.01286198,0.01872860,0.00420747,-0.03
 426070,-0.01511182,0.00215912,0.00303050,0.00010509,-0.00012979,-0.000
 79779,0.00001476,-0.00004379,-0.00016659,-0.00009862,0.00003870,-0.000
 07367,-0.00016422,0.00008858,-0.00011093,0.00008402,-0.00009667,0.0000
 6282,0.00011246,0.00000845,0.00004183,-0.00166874,-0.00107895,-0.00137
 615,-0.02409758,-0.00763942,0.04604867,-0.00094804,0.00005734,-0.00011
 909,0.00493894,0.00478033,0.00495514,-0.02962351,-0.02038994,-0.008298
 42,0.00044243,0.01439810,-0.00111273,-0.00003624,0.00036578,0.00013146
 ,0.00001789,0.00056302,-0.00018608,0.00015461,-0.00017125,0.00001282,-
 0.00014914,0.00029835,-0.00031551,0.00005312,-0.00030504,0.00016074,0.
 00004172,-0.00005455,0.00027228,-0.00013497,0.00027164,0.00108591,-0.0
 0934625,-0.01972567,-0.00491150,0.03648824,0.00012001,-0.00297917,0.00
 205973,0.00180799,-0.00227588,-0.01969654,-0.02222636,-0.18260858,-0.0
 5309058,0.00966533,-0.03414123,0.00647962,-0.00021061,-0.00010852,0.00
 014828,0.00062398,0.00066341,0.00000127,-0.00009922,0.00000180,0.00001
 068,0.00003731,0.00024014,0.00009179,-0.00003773,-0.00026554,-0.000051
 63,-0.00008275,-0.00022507,-0.00000203,-0.00013990,-0.00023946,0.00055
 846,-0.01051314,-0.00915569,-0.00310733,0.01962533,0.23225240,0.000211
 51,0.00062771,0.00109623,-0.00024380,-0.02779858,-0.02450953,-0.007575
 95,-0.04720753,-0.05306225,-0.00065370,0.01051572,0.00650505,0.0003641
 4,0.00020451,-0.00059229,0.00018703,0.00066901,-0.00080186,-0.00009367
 ,0.00004723,-0.00018209,-0.00029946,0.00034990,-0.00027861,0.00013035,
 -0.00038709,0.00015968,0.00019717,-0.00005830,0.00014997,0.00176502,-0
 .00006625,-0.00226966,-0.00183574,-0.00197780,0.00387102,0.00854547,0.
 06511469,0.06991907,0.00006138,-0.00027255,0.00072274,-0.00020647,0.00
 001291,-0.00156849,0.00032322,0.00038399,-0.00014056,-0.00077552,-0.00
 123089,0.00072044,0.00025629,0.00019004,-0.00110323,-0.00165942,0.0018
 7221,0.00574382,-0.00049269,-0.00138779,0.00062067,-0.00026533,0.00014
 170,0.00007261,-0.00011407,-0.00007046,-0.00006391,-0.00021498,-0.0001
 2281,-0.00033368,-0.00005153,-0.00012456,0.00009729,-0.00023471,0.0000
 3202,0.00008326,-0.00121990,0.00030640,-0.00000387,0.07663551,-0.00013
 772,-0.00082000,0.00033962,-0.00012849,0.00097156,-0.00093200,0.000159
 57,-0.00150279,0.00000049,-0.00084904,0.00008500,0.00009420,0.00027837
 ,-0.00018157,-0.00048727,-0.00119052,0.00138200,0.00238145,-0.00018642
 ,-0.00056982,0.00038728,-0.00029443,0.00062440,0.00008027,0.00008069,-
 0.00041425,-0.00013996,-0.00003995,-0.00025990,0.00010191,0.00001039,-
 0.00001047,0.00004663,-0.00007771,0.00018003,0.00007825,0.00016589,0.0
 0081274,0.00027407,0.00097119,0.00911702,0.00048589,0.00035417,-0.0001
 1082,-0.00103407,-0.00066249,0.00040848,0.00104710,0.00040016,-0.00126
 291,0.00116044,0.00043239,0.00070945,-0.00024289,-0.00050609,-0.000236
 93,0.00033137,0.00049896,-0.00200163,0.00024835,-0.00051175,0.00012262
 ,-0.00110024,0.00118882,-0.00192972,0.00037582,-0.00113847,0.00069750,
 0.00080131,-0.00003040,0.00056210,-0.00002904,-0.00012027,-0.00012725,
 -0.00010644,0.00007725,0.00012365,-0.00024121,0.00021137,0.00076490,0.
 04392985,0.03510929,0.23448765,-0.00013992,-0.00046846,0.00059687,0.00
 011857,0.00110244,-0.00150929,-0.01124149,0.01980136,0.00002367,-0.117
 73932,0.08433577,0.05404963,-0.00004117,0.00661381,0.01158392,-0.00065
 159,0.00023490,0.00022194,0.00003555,0.00003899,0.00009488,0.00037440,
 -0.00019648,-0.00005693,-0.00020429,0.00003067,0.00002565,-0.00020596,
 0.00003093,0.00007111,-0.00004050,-0.00000009,-0.00033729,-0.00048371,
 0.00054533,-0.00008283,-0.00081591,0.00077529,-0.00089503,-0.00000678,
 -0.00049004,-0.00009088,0.13090761,0.00007303,0.00010801,-0.00049244,0
 .00066226,-0.00058507,0.00147879,0.02109747,-0.01393329,0.00098686,0.0
 8411480,-0.10233349,-0.04916821,0.00626684,0.00266869,-0.00472685,-0.0
 0069469,-0.00026171,0.00027765,0.00016336,0.00006168,0.00002024,-0.000
 41982,0.00067587,-0.00060808,0.00015856,-0.00051043,0.00024014,0.00023
 025,-0.00007195,0.00028027,0.00016346,0.00009554,0.00029932,0.00065620
 ,-0.00114768,0.00086532,0.00062963,-0.00068629,0.00005734,-0.00064915,
 -0.00099156,-0.00001966,-0.11211977,0.11562082,0.00015995,-0.00029012,
 -0.00028137,-0.00166082,0.00215922,0.00027097,-0.00955454,0.01039899,0
 .00388548,0.05427908,-0.04901681,-0.06267429,0.02041041,-0.01470694,-0
 .02506848,0.00034895,0.00028479,-0.00084660,-0.00002970,-0.00009578,-0
 .00001891,0.00002998,-0.00010170,-0.00015072,-0.00003140,0.00004849,0.
 00009419,0.00002343,0.00004523,0.00006289,0.00008131,-0.00018860,-0.00
 051492,-0.00023093,0.00067965,-0.00056204,-0.00059511,0.00037075,-0.00
 075880,-0.00020597,-0.00027247,0.00016693,-0.06412566,0.05043296,0.089
 27301,-0.00006173,-0.00014332,0.00021364,0.00021243,0.00007454,-0.0003
 4784,0.00017138,0.00014954,0.00095863,0.00475946,-0.00139650,-0.001889
 23,-0.05518073,0.05304613,-0.02073009,0.00558952,-0.00753568,0.0014709
 4,-0.00020800,-0.00018505,-0.00054425,-0.00089230,-0.00622657,-0.00166
 334,-0.00097715,0.00244937,-0.00009692,0.00023235,0.00083036,-0.000077
 07,0.00000549,-0.00002434,0.00002871,0.00003059,0.00006816,-0.00004562
 ,0.00000725,0.00010998,-0.00000145,0.00005422,-0.00012524,0.00002946,0
 .00051680,-0.00036861,0.00054529,0.06184524,0.00003132,0.00020328,-0.0
 0038731,-0.00013587,-0.00013083,0.00075040,-0.00032072,0.00029940,-0.0
 0076304,0.00236273,-0.00591071,0.01569716,0.05159233,-0.16008383,0.054
 16899,-0.00027280,-0.03656384,-0.00246874,-0.00017595,-0.00090305,-0.0
 0089438,-0.00330434,0.00027706,-0.00331982,-0.00104706,-0.00243426,-0.
 00127141,0.00063137,-0.00040630,0.00056751,0.00001247,0.00006048,-0.00
 006404,0.00013721,0.00002817,0.00006608,0.00001954,-0.00012383,0.00002
 911,-0.00005622,-0.00005263,0.00010445,-0.00016872,0.00092649,-0.00019
 786,-0.05759957,0.20864890,0.00008299,-0.00012571,0.00004118,-0.000292
 70,0.00041632,-0.00047539,0.00039289,-0.00024341,-0.00249381,-0.008401
 00,0.02505957,-0.02811401,-0.01873160,0.05167396,-0.05365561,0.0022900
 4,-0.00917284,0.00541990,-0.00031687,-0.00037124,-0.00052808,-0.002592
 35,-0.00687240,0.00011273,0.00016683,0.00309617,-0.00136863,0.00030869
 ,0.00095181,-0.00030128,0.00000648,0.00001912,0.00002006,0.00000803,0.
 00003433,0.00000675,0.00000131,-0.00001081,0.00004064,0.00010076,0.000
 21403,-0.00005213,0.00042271,0.00046286,-0.00063923,0.02837897,-0.0629
 2170,0.07861755,-0.00002909,0.00015879,-0.00022623,-0.00000311,-0.0000
 5530,0.00023279,-0.00062442,0.00017095,-0.00017011,-0.01206769,-0.0004
 2396,0.01914975,-0.20225471,-0.00320215,0.03147837,-0.02277138,-0.0141
 3520,-0.00562981,0.00083399,-0.00023972,-0.00013818,-0.00097900,-0.000
 43930,-0.00109493,0.00035049,-0.00004223,0.00050933,0.00023896,0.00016
 082,0.00022885,0.00002882,0.00002117,-0.00001616,0.00040191,0.00005248
 ,-0.00032320,0.00024170,-0.00006430,-0.00004241,0.00003601,-0.00006589
 ,0.00010658,-0.00031975,-0.00012597,0.00040628,-0.01532546,0.00868914,
 -0.00079221,0.25217229,0.00001508,0.00006071,-0.00022761,-0.00005291,-
 0.00000941,0.00043227,0.00014399,-0.00023030,0.00007614,-0.00309912,0.
 00419926,0.00058157,0.00184239,-0.03147306,0.00242197,-0.02491723,-0.0
 0662452,-0.00493468,-0.00093464,-0.00016677,-0.00042602,-0.00026670,-0
 .00053186,-0.00126334,-0.00012453,-0.00035471,0.00033128,-0.00023752,-
 0.00006335,0.00000302,0.00001823,0.00003105,-0.00007348,0.00017195,0.0
 0017804,0.00044418,-0.00014473,-0.00009475,0.00026217,0.00003135,-0.00
 001118,0.00004028,0.00004216,0.00016919,0.00017150,0.01872039,-0.00266
 495,-0.00031095,0.00931154,0.03926093,-0.00003067,-0.00018015,0.000310
 36,0.00017591,0.00003664,-0.00049532,-0.00005630,0.00086825,-0.0003222
 5,0.02889858,-0.00151986,-0.01998398,0.03421512,0.00389391,-0.03781739
 ,-0.01262252,-0.00546073,0.00215254,-0.00078441,-0.00070796,0.00034539
 ,-0.00062289,-0.00117246,-0.00050002,0.00024998,0.00037268,-0.00014333
 ,-0.00014778,0.00015447,-0.00019708,0.00000201,-0.00002557,0.00007543,
 -0.00020588,0.00031433,-0.00085411,0.00011811,0.00023509,-0.00020964,0
 .00010962,0.00001072,-0.00001635,-0.00002465,-0.00045417,-0.00228278,-
 0.00580295,0.00180853,0.00390330,-0.04293030,0.00270941,0.05634952,-0.
 00001585,-0.00008799,0.00015943,0.00004440,0.00007389,-0.00030023,0.00
 003629,0.00001132,0.00023024,0.00000725,0.00015486,-0.00009475,0.00011
 099,0.00016582,0.00029196,-0.00093571,-0.00076755,-0.00140643,-0.00013
 463,-0.00015808,0.00011464,-0.01591126,-0.02084887,0.01344122,-0.00043
 532,-0.00044099,-0.00171576,-0.07571726,-0.03692824,0.06648438,-0.0000
 0427,-0.00001524,0.00002297,-0.00002570,-0.00000646,-0.00002501,-0.000
 03516,-0.00000897,-0.00006188,0.00015100,-0.00005839,-0.00033910,0.000
 03674,-0.00006742,-0.00001535,0.00005131,-0.00010677,0.00001662,-0.000
 06213,-0.00000553,0.00000735,0.09305425,-0.00001038,-0.00013189,0.0000
 9334,0.00002079,0.00013516,-0.00018808,0.00004968,-0.00016251,0.000129
 93,-0.00000878,0.00009988,-0.00007249,0.00022589,-0.00024520,0.0001760
 7,0.00074238,0.00026846,-0.00099938,0.00006114,-0.00001517,0.00034421,
 -0.02386459,-0.01698819,0.01158427,0.00052803,-0.00127389,-0.00171161,
 -0.03605815,-0.06324731,0.06059032,-0.00000366,0.00000014,0.00001571,-
 0.00001738,0.00002502,-0.00000487,0.00000298,0.00007382,0.00000377,0.0
 0003876,0.00000039,-0.00002672,-0.00002732,-0.00001380,-0.00002017,-0.
 00012129,-0.00002803,-0.00005606,-0.00003893,0.00000989,0.00000140,0.0
 5413049,0.07912849,0.00006251,0.00002890,0.00003647,-0.00009406,-0.000
 05175,-0.00004192,0.00017586,0.00009816,-0.00003309,0.00009597,0.00008
 515,0.00008547,-0.00020107,0.00040381,-0.00038292,-0.00073792,-0.00151
 528,-0.00073841,0.00011919,0.00023394,-0.00006002,0.00509421,0.0067666
 6,0.01000626,-0.00075237,-0.00332933,-0.00154053,0.06382585,0.05860719
 ,-0.13987127,-0.00001040,-0.00001449,-0.00000429,-0.00004119,-0.000014
 88,0.00001001,-0.00010129,-0.00004838,-0.00001521,0.00020739,-0.000026
 68,-0.00013773,-0.00006711,-0.00005480,-0.00001543,0.00009839,-0.00000
 825,0.00020140,-0.00000803,-0.00005792,0.00002758,-0.08046279,-0.07194
 563,0.16352088,-0.00000654,-0.00004998,0.00009472,0.00002427,0.0000421
 4,-0.00017485,0.00001648,0.00000497,0.00013450,-0.00002128,0.00004563,
 -0.00004770,-0.00009891,0.00001633,0.00002308,-0.00080487,-0.00084334,
 -0.00111128,-0.00002271,-0.00005627,-0.00001444,-0.02525620,-0.0061623
 0,-0.02129105,0.00035946,0.00228676,0.00032557,-0.12148698,0.04941555,
 -0.07486501,-0.00000242,-0.00000902,0.00001232,-0.00001141,-0.00000277
 ,-0.00001684,-0.00001520,-0.00000487,-0.00003090,0.00003668,-0.0000162
 2,-0.00009860,0.00001965,-0.00002912,-0.00000941,-0.00004501,0.0000073
 8,-0.00010528,-0.00004040,-0.00001622,-0.00003445,0.00692505,-0.001491
 43,0.00152843,0.15017898,0.00000014,0.00000748,-0.00005025,-0.00001198
 ,0.00000060,0.00008907,-0.00000533,-0.00003004,-0.00008016,-0.00002297
 ,-0.00007369,0.00002648,-0.00031555,0.00001434,-0.00031848,-0.00184943
 ,-0.00156663,-0.00094721,0.00006580,0.00000878,-0.00005853,-0.01522097
 ,0.00927855,-0.01227427,0.00095617,-0.00131940,0.00086399,0.05181129,-
 0.06629859,0.04536733,0.00000132,0.00000840,-0.00000688,0.00001320,0.0
 0000811,0.00001053,0.00001255,0.00001074,0.00002259,-0.00000852,0.0000
 2713,0.00006428,-0.00002580,0.00003848,-0.00000363,-0.00004738,0.00013
 828,-0.00003561,0.00001269,-0.00001898,-0.00003251,0.00471397,-0.00309
 434,0.01084748,-0.05565258,0.07282761,0.00002253,-0.00005520,0.0000917
 4,-0.00001799,0.00004612,-0.00015983,0.00009620,-0.00002697,0.00010040
 ,0.00001919,0.00010044,-0.00004189,0.00017983,-0.00002000,0.00006881,-
 0.00062219,-0.00008568,0.00001239,-0.00010944,0.00011812,0.00004545,-0
 .01915968,-0.00585467,-0.00761690,0.00069823,0.00191236,-0.00101469,-0
 .07604271,0.04402574,-0.10268672,-0.00000742,-0.00000909,0.00000896,-0
 .00003442,0.00000108,-0.00000480,-0.00004216,0.00000250,-0.00001622,-0
 .00003905,0.00001734,-0.00007174,-0.00002832,-0.00003385,-0.00001749,-
 0.00010268,-0.00002126,-0.00003282,-0.00005157,-0.00000719,0.00001748,
 -0.00911755,0.01308240,-0.01564845,0.10067344,-0.05048874,0.11945273,-
 0.00001407,-0.00000994,0.00003566,0.00002427,0.00000811,-0.00006908,-0
 .00003970,0.00003697,0.00005820,-0.00000213,0.00001853,-0.00002959,-0.
 00002847,0.00013807,0.00009704,-0.00213840,-0.00008877,0.00037915,-0.0
 0045782,-0.00030211,-0.00070697,0.01007992,-0.01122629,-0.00838844,-0.
 00275759,-0.00236599,0.00105020,-0.07184607,0.06479310,0.04007337,0.00
 000075,-0.00000353,0.00000605,0.00000690,-0.00001126,-0.00001474,0.000
 01190,-0.00001909,-0.00002758,-0.00006483,-0.00002395,-0.00005665,0.00
 002082,-0.00001058,0.00000049,0.00007488,-0.00002772,0.00005442,0.0000
 1119,-0.00000726,-0.00000906,-0.00550794,0.00665396,0.01214943,-0.0098
 7649,0.01540714,0.00349952,0.08239026,0.00000153,-0.00011963,0.0001103
 8,0.00001605,0.00011552,-0.00021119,0.00006664,-0.00012568,0.00015363,
 -0.00001619,0.00012407,-0.00010439,0.00035277,-0.00028353,0.00034410,-
 0.00010941,0.00077087,0.00013399,-0.00031090,0.00021927,0.00003091,-0.
 00246975,-0.02947304,-0.02001554,-0.00140601,0.00039977,0.00092600,0.0
 6466497,-0.13296675,-0.06801982,-0.00000478,-0.00000490,0.00001715,-0.
 00002678,0.00002435,-0.00000829,-0.00001972,0.00006039,-0.00000495,0.0
 0005419,0.00006240,-0.00006030,0.00000522,-0.00002777,-0.00000964,-0.0
 0011810,-0.00005801,-0.00009798,-0.00005937,0.00004077,0.00001025,-0.0
 0019384,0.00604439,-0.00033580,0.01262468,-0.00960930,-0.00244950,-0.0
 7307745,0.16547109,0.00002747,-0.00005176,0.00011820,-0.00001882,0.000
 03597,-0.00020583,0.00011759,0.00001505,0.00013628,0.00003697,0.000155
 02,-0.00007198,0.00027217,0.00012704,0.00020406,-0.00114961,-0.0002549
 7,-0.00016736,-0.00044046,0.00002675,-0.00003762,0.00057303,-0.0177752
 0,-0.00482183,-0.00057383,0.00088526,-0.00051872,0.04001624,-0.0692146
 7,-0.07753819,-0.00000891,-0.00001458,0.00001244,-0.00004607,-0.000005
 28,-0.00000816,-0.00006568,-0.00001833,-0.00003833,-0.00000469,-0.0000
 1620,-0.00016907,-0.00000962,-0.00005968,-0.00001565,-0.00002059,-0.00
 008567,0.00004654,-0.00006904,0.00000494,0.00004887,0.01472897,-0.0101
 1433,-0.01352844,-0.00554444,0.00671688,0.00715996,-0.04819684,0.08933
 959,0.08878221,0.00006047,0.00024203,-0.00030942,-0.00009897,-0.000229
 47,0.00063560,-0.00054104,0.00000824,-0.00059732,-0.00028847,-0.001090
 60,-0.00032459,-0.00081384,-0.00051722,0.00151862,-0.03429738,-0.02732
 532,0.02809162,0.00138729,-0.00172289,0.00044975,-0.00271051,0.0013346
 7,-0.00454311,0.00067512,-0.00140685,0.00147084,0.00259281,0.00107888,
 -0.00027525,0.00000176,0.00003321,-0.00004735,0.00004270,-0.00000941,0
 .00002222,-0.00036061,-0.00009825,-0.00001246,-0.07345519,-0.00777953,
 -0.06878190,-0.00024021,0.00001107,0.00002082,0.00000979,0.00014179,-0
 .00002998,0.00004605,0.00006522,-0.00005372,-0.00122057,-0.00076583,0.
 00028781,-0.00015554,0.00012795,0.00015854,-0.00005983,-0.00027601,0.0
 0007204,0.30176130,0.00001668,0.00042769,-0.00016953,0.00006586,-0.000
 46856,0.00044535,-0.00076263,0.00098794,-0.00020961,-0.00087627,-0.001
 53457,-0.00040164,-0.00190434,-0.00011903,-0.00019637,-0.02397580,0.01
 773993,0.00737498,-0.00205085,-0.00300897,0.00368446,0.00332940,-0.000
 56320,-0.00042671,-0.00093991,0.00093220,-0.00000244,-0.00038931,0.001
 21983,0.00080773,0.00000212,-0.00000128,-0.00001690,0.00006312,-0.0001
 4527,-0.00009527,-0.00006123,-0.00046487,-0.00027983,-0.00704069,-0.00
 160809,-0.02542153,0.00027775,0.00023066,0.00020314,0.00038730,0.00017
 526,-0.00004797,0.00002202,-0.00002894,0.00001532,-0.00012127,-0.00030
 494,-0.00050073,0.00004288,-0.00008323,-0.00011531,0.00018696,-0.00019
 787,0.00008621,-0.02597082,0.03763734,-0.00035914,-0.00031950,0.000124
 25,0.00067101,0.00044928,-0.00032961,-0.00155514,-0.00062430,0.0006238
 4,-0.00146801,-0.00065886,-0.00044456,-0.00107534,0.00002787,0.0023885
 5,0.03312000,0.00660070,-0.03168195,0.00181868,0.00600031,-0.00264382,
 0.00240728,-0.00138981,0.00143636,-0.00016387,0.00123536,-0.00066366,-
 0.00108979,0.00073774,-0.00335316,0.00003913,0.00007082,0.00009063,0.0
 0013957,-0.00003239,-0.00016902,0.00025522,0.00011817,-0.00033504,-0.0
 9077994,-0.02149841,-0.19511559,0.00026776,0.00002758,0.00003556,0.000
 04899,-0.00027985,-0.00009068,-0.00033464,-0.00028726,-0.00016190,-0.0
 0156884,-0.00069030,-0.00203572,0.00021393,-0.00011128,0.00003498,0.00
 020259,0.00003441,0.00021366,-0.01868268,0.03425176,0.29312094,-0.0000
 6684,0.00015881,-0.00031223,0.00000036,-0.00017479,0.00063343,-0.00100
 202,-0.00114237,-0.00148885,-0.00015032,-0.00119796,-0.00015641,-0.005
 85335,-0.01866109,0.00187328,-0.04664053,-0.01551341,0.01889287,-0.020
 91354,-0.01097509,0.02661579,0.01154407,0.00525080,-0.00402703,-0.0029
 1940,0.00519823,-0.00270694,-0.00286124,0.00063883,-0.00218944,0.00005
 071,0.00004950,-0.00006037,0.00018373,0.00003923,-0.00001039,0.0002880
 5,0.00043299,0.00037841,0.00120676,0.00979765,0.02360640,0.00009283,0.
 00024967,0.00015142,-0.00087061,-0.00040946,-0.00096827,0.00011588,-0.
 00055667,-0.00045145,-0.00041131,-0.00004601,-0.00116970,0.00028392,0.
 00003789,0.00002751,0.00017253,0.00030242,0.00030382,-0.19233901,0.059
 69765,0.07789544,0.26009468,0.00008896,0.00048703,-0.00038209,-0.00022
 746,-0.00051639,0.00071020,-0.00044242,0.00071662,-0.00122293,-0.00033
 421,-0.00140683,0.00083932,-0.01927012,-0.03648812,0.00920954,-0.01403
 312,-0.19167568,0.07422142,-0.00503819,0.01076664,0.00079688,-0.002692
 78,-0.02656300,0.02958272,0.00487642,0.00018299,0.00141512,0.00107127,
 0.00222108,-0.00192134,0.00000675,-0.00000057,-0.00008291,0.00006079,-
 0.00015763,0.00006732,-0.00032005,-0.00074673,-0.00039721,0.00692869,-
 0.00683525,-0.00998580,-0.00034301,-0.00003672,0.00010772,-0.00194277,
 -0.00139698,-0.00166123,0.00029338,-0.00167668,-0.00087494,0.00056523,
 -0.00028085,0.00083253,-0.00015209,-0.00027403,-0.00013876,-0.00006845
 ,-0.00046655,0.00021811,0.06414842,-0.05083317,-0.02365928,-0.03317566
 ,0.30499248,0.00004965,0.00024443,-0.00052375,-0.00022561,-0.00025429,
 0.00110126,-0.00115309,-0.00186829,-0.00217304,-0.00072314,-0.00200154
 ,-0.00164687,0.00237932,0.00120737,0.00830662,0.01926554,0.08148703,-0
 .07469717,0.02211023,0.00478071,-0.01998581,-0.00230525,0.02606860,-0.
 02517794,-0.00335875,0.00182315,-0.00089883,-0.00161373,-0.00010258,-0
 .00198612,0.00006192,0.00006584,-0.00013195,0.00016324,0.00013551,0.00
 009777,0.00045060,0.00062287,0.00056332,0.04183530,-0.01576343,-0.0368
 1119,-0.00013085,0.00018859,0.00005700,-0.00045095,-0.00050897,-0.0006
 5901,-0.00028557,0.00011034,-0.00024633,-0.00039025,-0.00019202,0.0001
 6569,0.00033858,0.00039827,0.00031867,-0.00010796,0.00021658,0.0003991
 4,0.06092883,-0.01897959,-0.06104385,-0.13683731,-0.07768272,0.2149709
 9\\-0.00000006,0.00000056,-0.00000046,0.00000009,-0.00000035,-0.000000
 02,-0.00000014,0.00000012,0.00000005,0.00000024,-0.00000015,-0.0000000
 8,-0.00000015,-0.00000021,0.00000010,-0.00000015,0.00000010,0.00000012
 ,-0.00000019,0.00000013,0.00000013,0.,0.00000022,-0.00000010,0.0000000
 2,-0.00000083,0.00000029,0.00000018,0.00000019,0.00000008,0.00000004,-
 0.00000022,-0.00000008,-0.00000024,-0.00000001,0.00000002,0.00000002,0
 .00000024,0.00000009,-0.00000002,-0.00000001,-0.00000020,0.00000015,-0
 .00000016,-0.00000010,0.00000005,-0.00000023,0.00000009,-0.00000023,-0
 .00000003,0.00000006,0.00000013,0.00000011,-0.00000015,0.00000016,-0.0
 0000007,0.00000014,-0.00000009,0.00000017,0.00000012,0.00000033,-0.000
 00003,-0.00000001,-0.00000014,0.00000045,-0.00000009\\\@


 THERE IS NOTHING NOBLE IN BEING SUPERIOR TO SOME OTHER MAN.
 TRUE NOBILITY IS BEING SUPERIOR TO YOUR FORMER SELF.

                                                   -- HINDU PROVERB
 Job cpu time:       0 days  0 hours  0 minutes  1.4 seconds.
 File lengths (MBytes):  RWF=     57 Int=      0 D2E=      0 Chk=      2 Scr=      1
 Normal termination of Gaussian 09 at Wed Feb 17 07:56:40 2021.
