22
Properties=species:S:1:pos:R:3 energy=-1890.6128682834028 pbc="F F F"
C        3.44792000      -1.18009700       2.01201600
C        2.32170900      -0.68359800       1.09284800
C        2.47145800      -1.17375600      -0.35883700
C        2.36297800      -2.63466400      -0.48226500
C        4.22139900      -3.02838000       3.55668400
C        3.07666500      -2.47131400       2.74389600
H        4.37108900      -1.34193200       1.41230600
H        3.69549400      -0.39284500       2.75050900
H        1.33363800      -0.98323800       1.49144000
H        2.31674900       0.42499100       1.08799900
H        1.71386400      -0.67540800      -0.99989900
H        3.46768700      -0.85480000      -0.75549100
C        1.14445400      -3.44628700      -0.57293300
H        5.23631800      -2.75790500       3.22425700
H        2.19207800      -2.31815600       3.39559900
H        2.76032200      -3.24971400       2.01401300
H        0.57873200      -3.21777500      -1.49163800
H        0.47195000      -3.25343400       0.27931300
H        1.35680900      -4.52770500      -0.58543900
O        4.03476400      -3.74642900       4.51413600
O        4.59583300      -2.91369400      -0.46034500
O        3.50737700      -3.45596300      -0.53210800
22
Properties=species:S:1:pos:R:3 energy=-1890.628933406205 pbc="F F F"
C        3.45496043      -1.18069170       2.01587150
C        2.32160747      -0.69117171       1.10026594
C        2.47648632      -1.18203073      -0.35160429
C        2.35347186      -2.64089406      -0.50668089
C        4.22724148      -3.03640492       3.56511460
C        3.07992508      -2.46234280       2.76530051
H        4.37315080      -1.35255709       1.41085959
H        3.71189456      -0.38489761       2.74364611
H        1.33414296      -1.00047057       1.50223503
H        2.30631189       0.41927364       1.10094228
H        1.72735196      -0.67076709      -0.99397522
H        3.51102290      -0.86641547      -0.78861929
C        1.13380960      -3.45454911      -0.57556719
H        5.24395436      -2.77814480       3.22452174
H        2.20688544      -2.28425596       3.42975411
H        2.73575726      -3.24410512       2.04784336
H        0.56924543      -3.25265600      -1.49963429
H        0.45950304      -3.25773377       0.27483485
H        1.36289241      -4.53335083      -0.57413441
O        4.03719207      -3.75603862       4.52125206
O        4.56436187      -2.84063402      -0.45474414
O        3.48811782      -3.43126466      -0.62142095
22
Properties=species:S:1:pos:R:3 energy=-1890.5227464850864 pbc="F F F"
C        3.46234686      -1.18157436       2.01953405
C        2.32165487      -0.69978004       1.10775384
C        2.48084825      -1.19001398      -0.34439134
C        2.34349242      -2.64618126      -0.53112379
C        4.23259210      -3.04429608       3.57375473
C        3.08386248      -2.45266516       2.78687708
H        4.37551307      -1.36366634       1.40958929
H        3.72832811      -0.37716647       2.73585740
H        1.33549037      -1.01928069       1.51290306
H        2.29552950       0.41209392       1.11419827
H        1.74064833      -0.66611567      -0.98745459
H        3.55322474      -0.87817578      -0.82110058
C        1.12382868      -3.46315662      -0.57881722
H        5.25067160      -2.79885877       3.22491417
H        2.22372349      -2.24972643       3.46363977
H        2.71171176      -3.23646772       2.08269998
H        0.56116201      -3.28754020      -1.50833364
H        0.44680901      -3.26260318       0.26893350
H        1.36915514      -4.53872614      -0.56295210
O        4.03871121      -3.76504914       4.52876000
O        4.53371941      -2.76831885      -0.44983383
O        3.46626359      -3.40483403      -0.70934701
22
Properties=species:S:1:pos:R:3 energy=-1890.2983386260855 pbc="F F F"
C        3.47006089      -1.18273928       2.02300299
C        2.32185412      -0.70939565       1.11529698
C        2.48458001      -1.19773072      -0.33720846
C        2.33305169      -2.65055127      -0.55555491
C        4.23744924      -3.05204107       3.58259061
C        3.08845852      -2.44230614       2.80859559
H        4.37816902      -1.37523792       1.40849499
H        3.74477386      -0.36965970       2.72716728
H        1.33767203      -1.03961750       1.52342816
H        2.28442334       0.40348012       1.12774232
H        1.75375275      -0.66143528      -0.98036689
H        3.59426694      -0.89010076      -0.85289492
C        1.11450214      -3.47207983      -0.58266875
H        5.25647129      -2.82001221       3.22543461
H        2.24253734      -2.21462763       3.49721706
H        2.68821457      -3.22684465       2.11851850
H        0.55446950      -3.32237810      -1.51770532
H        0.43389958      -3.26802652       0.26163214
H        1.37558363      -4.54382641      -0.55190728
O        4.03933639      -3.77345527       4.53664030
O        4.50386668      -2.69677105      -0.44559636
O        3.44189345      -3.37674618      -0.79579763
22
Properties=species:S:1:pos:R:3 energy=-1889.9657249837433 pbc="F F F"
C        3.47808413      -1.18418075       2.02627768
C        2.32220814      -0.71999117       1.12288064
C        2.48771779      -1.20520589      -0.33006597
C        2.32216172      -2.65402976      -0.57993544
C        4.24181129      -3.05962744       3.59160846
C        3.09369452      -2.43129079       2.83042591
H        4.38111186      -1.38724999       1.40757661
H        3.76121098      -0.36238544       2.71760017
H        1.34067977      -1.06143017       1.53379443
H        2.27301493       0.39346051       1.14154976
H        1.76666487      -0.65670748      -0.97274189
H        3.63412393      -0.90221024      -0.88396235
C        1.10582085      -3.48128906      -0.58710744
H        5.26135502      -2.84157042       3.22608341
H        2.26327214      -2.17901973       3.53044706
H        2.66529483      -3.21527875       2.15523457
H        0.54915563      -3.35712019      -1.52771860
H        0.42080643      -3.27398807       0.25295395
H        1.38216433      -4.54864717      -0.54101517
O        4.03908256      -3.78125168       4.54487347
O        4.47476476      -2.62601315      -0.44201399
O        3.41508653      -3.34707615      -0.88068427
22
Properties=species:S:1:pos:R:3 energy=-1889.5416671829514 pbc="F F F"
C        3.48639818      -1.18589309       2.02935745
C        2.32271982      -0.73153926       1.13049009
C        2.49029781      -1.21246447      -0.32297418
C        2.31083452      -2.65664241      -0.60422657
C        4.24567664      -3.06704278       3.60079447
C        3.09955180      -2.41964418       2.85233793
H        4.38433479      -1.39968071       1.40683407
H        3.77761866      -0.35535183       2.70718048
H        1.34450539      -1.08466787       1.54398593
H        2.26132576       0.38206334       1.15559595
H        1.77938434      -0.65191382      -0.96460939
H        3.67277013      -0.91452405      -0.91426291
C        1.09777569      -3.49075459      -0.59211895
H        5.26532437      -2.86349871       3.22686089
H        2.28587306      -2.14296293       3.56329086
H        2.64298162      -3.20181286       2.19278383
H        0.54520816      -3.39171698      -1.53834275
H        0.40756121      -3.28047211       0.24292215
H        1.38888368      -4.55318390      -0.53029098
O        4.03796469      -3.78843308       4.55344002
O        4.44637470      -2.55606770      -0.43906901
O        3.38592196      -3.31589900      -0.96391837
22
Properties=species:S:1:pos:R:3 energy=-1889.0472375846887 pbc="F F F"
C        3.49498463      -1.18787059       2.03224166
C        2.32339209      -0.74401258       1.13811063
C        2.49235628      -1.21953142      -0.31594342
C        2.29908213      -2.65841489      -0.62838950
C        4.24904366      -3.07427465       3.61013486
C        3.10601169      -2.40739136       2.87430152
H        4.38783103      -1.41250824       1.40626726
H        3.79397609      -0.34856698       2.69593260
H        1.34914071      -1.10927974       1.55398674
H        2.24937735       0.36931690       1.16985624
H        1.79191082      -0.64703583      -0.95599914
H        3.71017996      -0.92706203      -0.94375665
C        1.09035755      -3.50044674      -0.59768893
H        5.26838093      -2.88576238       3.22776737
H        2.31028529      -2.10651742       3.59570952
H        2.62130405      -3.18648985       2.23110194
H        0.54261484      -3.42611897      -1.54954706
H        0.39419561      -3.28746293       0.23155991
H        1.39572812      -4.55743211      -0.51974992
O        4.03599773      -3.79499416       4.56232046
O        4.41865758      -2.48695724      -0.43674368
O        3.35447886      -3.28328979      -1.04541141
22
Properties=species:S:1:pos:R:3 energy=-1888.5036264993412 pbc="F F F"
C        3.50382508      -1.19010755       2.03492965
C        2.32422786      -0.75738375       1.14572751
C        2.49392939      -1.22643170      -0.30898399
C        2.28691658      -2.65937287      -0.65238543
C        4.25191074      -3.08131062       3.61961584
C        3.11305551      -2.39455739       2.89628656
H        4.39159376      -1.42571074       1.40587611
H        3.81026247      -0.34203904       2.68388096
H        1.35457753      -1.13521495       1.56378095
H        2.23719120       0.35524944       1.18430597
H        1.80424395      -0.64205508      -0.94694094
H        3.74632785      -0.93984402      -0.97240361
C        1.08355731      -3.51033581      -0.60380305
H        5.27052626      -2.90832673       3.22880320
H        2.33645398      -2.06974341       3.62766414
H        2.60029123      -3.16935254       2.27012455
H        0.54136341      -3.46027665      -1.56130079
H        0.38074129      -3.29494481       0.21889043
H        1.40268411      -4.56138730      -0.50940721
O        4.03319666      -3.80092960       4.57149527
O        4.39157446      -2.41870432      -0.43502029
O        3.32083637      -3.24932356      -1.12507483
22
Properties=species:S:1:pos:R:3 energy=-1887.930075497986 pbc="F F F"
C        3.51290115      -1.19259827       2.03742076
C        2.32523003      -0.77162544       1.15332603
C        2.49505335      -1.23319026      -0.30210623
C        2.27434989      -2.65954203      -0.67617555
C        4.25427626      -3.08813826       3.62922362
C        3.12066457      -2.38116733       2.91826294
H        4.39561620      -1.43926636       1.40566052
H        3.82645696      -0.33577613       2.67104995
H        1.36080769      -1.16242265       1.57335264
H        2.22478884       0.33988924       1.19892049
H        1.81638337      -0.63695311      -0.93746456
H        3.78118823      -0.95288983      -1.00016384
C        1.07736585      -3.52039211      -0.61044696
H        5.27176197      -2.93115706       3.22996870
H        2.36432431      -2.03270108       3.65911578
H        2.57997225      -3.15044380       2.30978729
H        0.54144163      -3.49414054      -1.57357323
H        0.36722992      -3.30290204       0.20493690
H        1.40973808      -4.56504497      -0.49927806
O        4.02957643      -3.80623411       4.58094498
O        4.36508641      -2.35133146      -0.43388110
O        3.28507361      -3.21407537      -1.20282008
22
Properties=species:S:1:pos:R:3 energy=-1885.1525753735448 pbc="F F F"
C        3.52219442      -1.19533706       2.03971434
C        2.32640152      -0.78671030       1.16089146
C        2.49576437      -1.23983208      -0.29532044
C        2.26139410      -2.65894805      -0.69972105
C        4.25613861      -3.09474514       3.63894442
C        3.12882021      -2.36724623       2.94020053
H        4.39989156      -1.45315328       1.40562040
H        3.84253877      -0.32978638       2.65746400
H        1.36782297      -1.19085202       1.58268587
H        2.21219176       0.32326458       1.21367515
H        1.82832875      -0.63171147      -0.92759978
H        3.81473552      -0.96621931      -1.02699738
C        1.07177405      -3.53058593      -0.61760632
H        5.27208961      -2.95421869       3.23126421
H        2.39384144      -1.99545062       3.69002554
H        2.56037623      -3.12980647       2.35002582
H        0.54283723      -3.52766113      -1.58633363
H        0.35369317      -3.31131889       0.18972252
H        1.41687647      -4.56840064      -0.48937769
O        4.02515199      -3.81090237       4.59065007
O        4.33915450      -2.28486122      -0.43330840
O        3.24726972      -3.17762028      -1.27855863
22
Properties=species:S:1:pos:R:3 energy=-1886.1113915246822 pbc="F F F"
C        3.53168650      -1.19831821       2.04180973
C        2.32774524      -0.80261097       1.16840907
C        2.49609866      -1.24638212      -0.28863694
C        2.24806122      -2.65761660      -0.72298314
C        4.25749618      -3.10111884       3.64876443
C        3.13750375      -2.35281916       2.96206920
H        4.40441304      -1.46734964       1.40575567
H        3.85848708      -0.32407793       2.64314750
H        1.37561521      -1.22045221       1.59176473
H        2.19942148       0.30540370       1.22854529
H        1.84007973      -0.62631171      -0.91737638
H        3.84694414      -0.97985229      -1.05286428
C        1.06677279      -3.54088757      -0.62526679
H        5.27151079      -2.97747690       3.23269005
H        2.42495055      -1.95805224       3.72035448
H        2.54153227      -3.10748339       2.39077578
H        0.54553797      -3.56078891      -1.59955128
H        0.34016272      -3.32017965       0.17327047
H        1.42408575      -4.57144979      -0.47972130
O        4.01993833      -3.81492908       4.60059106
O        4.31373979      -2.21931614      -0.43328445
O        3.20750383      -3.14003333      -1.35220192
22
Properties=species:S:1:pos:R:3 energy=-1887.1449654589765 pbc="F F F"
C        3.54135899      -1.20153603       2.04370628
C        2.32926410      -0.81930010       1.17586416
C        2.49609243      -1.25286533      -0.28206605
C        2.23436330      -2.65557334      -0.74592300
C        4.25834733      -3.10724692       3.65866989
C        3.14669650      -2.33791116       2.98383885
H        4.40917384      -1.48183362       1.40606623
H        3.87428108      -0.31865891       2.62812487
H        1.38417621      -1.25117237       1.60057331
H        2.18649950       0.28633489       1.24350627
H        1.85163595      -0.62073538      -0.90682413
H        3.87778852      -0.99380861      -1.07772458
C        1.06235296      -3.55126735      -0.63341404
H        5.27002707      -3.00089701       3.23424655
H        2.45759681      -1.92056612       3.75006370
H        2.52346947      -3.08351742       2.43197283
H        0.54953159      -3.59347440      -1.61319545
H        0.32667022      -3.32946860       0.15560396
H        1.43135234      -4.57418794      -0.47032411
O        4.01395038      -3.81830893       4.61074844
O        4.28880335      -2.15471877      -0.43379154
O        3.16585506      -3.10138959      -1.42366142
22
Properties=species:S:1:pos:R:3 energy=-1888.189626022299 pbc="F F F"
C        3.55119350      -1.20498481       2.04540334
C        2.33096102      -0.83675033       1.18324198
C        2.49578187      -1.25930668      -0.27561808
C        2.22031235      -2.65284397      -0.76850183
C        4.25869047      -3.11311695       3.66864698
C        3.15637979      -2.32254731       3.00547934
H        4.41416717      -1.49658336       1.40655200
H        3.88989995      -0.31353744       2.61242052
H        1.39349778      -1.28296167       1.60909567
H        2.17344734       0.26608642       1.25853342
H        1.86299707      -0.61496403      -0.89597282
H        3.90724308      -1.00810808      -1.10153833
C        1.05850544      -3.56169557      -0.64203371
H        5.26764005      -3.02444431       3.23593404
H        2.49172538      -1.88305246       3.77911426
H        2.50621693      -3.05795140       2.47355260
H        0.55480585      -3.62566809      -1.62723542
H        0.31324736      -3.33917002       0.13674617
H        1.43866269      -4.57661058      -0.46120134
O        4.00720313      -3.82103661       4.62110272
O        4.26430625      -2.09109163      -0.43481194
O        3.12240255      -3.06176411      -1.49284858
22
Properties=species:S:1:pos:R:3 energy=-1889.1808066773378 pbc="F F F"
C        3.56117161      -1.20865886       2.04690025
C        2.33283889      -0.85493433       1.19052784
C        2.49520320      -1.26573113      -0.26930336
C        2.20592041      -2.64945414      -0.79068084
C        4.25852397      -3.11871651       3.67868193
C        3.16653494      -2.30675265       3.02696056
H        4.41938623      -1.51157704       1.40721288
H        3.90532288      -0.30872165       2.59605885
H        1.40357175      -1.31576927       1.61731590
H        2.16028651       0.24468655       1.27360210
H        1.87416274      -0.60897920      -0.88485222
H        3.93528225      -1.02277056      -1.12426557
C        1.05522110      -3.57214253      -0.65111148
H        5.26435129      -3.04808411       3.23775286
H        2.52728144      -1.84557144       3.80746724
H        2.48980377      -3.03082817       2.51545076
H        0.56134849      -3.65732049      -1.64164045
H        0.29992579      -3.34926821       0.11672029
H        1.44600325      -4.57871321      -0.45236819
O        3.99971152      -3.82310681       4.63163441
O        4.24020956      -2.02845728      -0.43632792
O        3.07722542      -3.02123194      -1.55967485
22
Properties=species:S:1:pos:R:3 energy=-1890.0875131834334 pbc="F F F"
C        3.57127494      -1.21255247       2.04819636
C        2.33490065      -0.87382473       1.19770699
C        2.49439262      -1.27216365      -0.26313220
C        2.19119951      -2.64542954      -0.81242121
C        4.25784621      -3.12403315       3.68876095
C        3.17714327      -2.29055224       3.04825239
H        4.42482424      -1.52679281       1.40804879
H        3.92052906      -0.30421969       2.57906427
H        1.41438991      -1.34954433       1.62521808
H        2.14703851       0.22216355       1.28868765
H        1.88513261      -0.60276245      -0.87349212
H        3.96188044      -1.03781586      -1.14586634
C        1.05249084      -3.58257853      -0.66063298
H        5.26016239      -3.07178171       3.23970333
H        2.56421015      -1.80818328       3.83508374
H        2.47425908      -3.00219060       2.55760294
H        0.56914726      -3.68838208      -1.65637982
H        0.28673719      -3.35974743       0.09554953
H        1.45336046      -4.58049135      -0.44383989
O        3.99149052      -3.82451423       4.64232401
O        4.21647434      -1.96683826      -0.43832177
O        3.03040280      -2.97986813      -1.62405169
22
Properties=species:S:1:pos:R:3 energy=-1890.8906211538385 pbc="F F F"
C        3.58148509      -1.21665995       2.04929101
C        2.33714919      -0.89339419       1.20476472
C        2.49338634      -1.27862918      -0.25711491
C        2.17616167      -2.64079584      -0.83368414
C        4.25665558      -3.12905447       3.69887024
C        3.18818611      -2.27397114       3.06932471
H        4.43047439      -1.54220883       1.40905963
H        3.93549768      -0.30003968       2.56146119
H        1.42594410      -1.38423601       1.63278628
H        2.13372485       0.19854569       1.30376542
H        1.89590632      -0.59629533      -0.86192229
H        3.98701210      -1.05326383      -1.16630069
C        1.05030553      -3.59297388      -0.67058390
H        5.25507493      -3.09550242       3.24178579
H        2.60245668      -1.77094815       3.86192482
H        2.45961196      -2.97208151       2.59994479
H        0.57818990      -3.71880339      -1.67142281
H        0.27371324      -3.37059198       0.07325706
H        1.46072077      -4.58194049      -0.43563164
O        3.98255509      -3.82525356       4.65315202
O        4.19306166      -1.90625711      -0.44077574
O        2.98201383      -2.93774774      -1.68589055
22
Properties=species:S:1:pos:R:3 energy=-1891.582601613651 pbc="F F F"
C        3.59178365      -1.22097560       2.05018354
C        2.33958743      -0.91361536       1.21168631
C        2.49222057      -1.28515271      -0.25126182
C        2.16081892      -2.63557872      -0.85443082
C        4.25495047      -3.13376801       3.70899602
C        3.19964477      -2.25703440       3.09014738
H        4.43632990      -1.55780326       1.41024532
H        3.95020792      -0.29618975       2.54327403
H        1.43822610      -1.41979347       1.64000459
H        2.12036704       0.17386123       1.31881076
H        1.90648352      -0.58955937      -0.85017250
H        4.01065163      -1.06913430      -1.18552866
C        1.04865605      -3.60329888      -0.68094988
H        5.24909048      -3.11921153       3.24400057
H        2.64196622      -1.73392626       3.88795156
H        2.44589153      -2.94054377       2.64241196
H        0.58846417      -3.74853489      -1.68673870
H        0.26088559      -3.38178614       0.04986609
H        1.46807063      -4.58305613      -0.42775866
O        3.97292019      -3.82531949       4.66409894
O        4.16993259      -1.84673638      -0.44367213
O        2.93213763      -2.89494583      -1.74510290
22
Properties=species:S:1:pos:R:3 energy=-1892.163784077602 pbc="F F F"
C        3.60215222      -1.22549373       2.05087331
C        2.34221828      -0.93446087       1.21845704
C        2.49093150      -1.29175918      -0.24558324
C        2.14518329      -2.62980384      -0.87462246
C        4.25272925      -3.13816136       3.71912450
C        3.21150059      -2.23976710       3.11069031
H        4.44238396      -1.57355426       1.41160577
H        3.96463898      -0.29267802       2.52452719
H        1.45122776      -1.45616586       1.64685708
H        2.10698660       0.14813846       1.33379901
H        1.91686388      -0.58253614      -0.83827255
H        4.03277347      -1.08544709      -1.20351031
C        1.04753329      -3.61352383      -0.69171658
H        5.24221063      -3.14287436       3.24634799
H        2.68268391      -1.69717779       3.91312505
H        2.43312689      -2.90762021       2.68494010
H        0.59995781      -3.77752710      -1.70229674
H        0.24828593      -3.39331419       0.02539980
H        1.47539647      -4.58383378      -0.42023616
O        3.96260078      -3.82470672       4.67514528
O        4.14704819      -1.78829860      -0.44699321
O        2.88085334      -2.85153744      -1.80160017
22
Properties=species:S:1:pos:R:3 energy=-1892.639758265812 pbc="F F F"
C        3.61257241      -1.23020862       2.05135965
C        2.34504465      -0.95590339       1.22506219
C        2.48955536      -1.29847357      -0.24008950
C        2.12926681      -2.62349688      -0.89422024
C        4.24999032      -3.14222209       3.72924188
C        3.22373487      -2.22219427       3.13092335
H        4.44862978      -1.58943999       1.41314089
H        3.97877003      -0.28951264       2.50524507
H        1.46494086      -1.49330235       1.65332783
H        2.09360503       0.12140563       1.34870552
H        1.92704702      -0.57520719      -0.82625220
H        4.05335204      -1.10222204      -1.22020566
C        1.04692813      -3.62361904      -0.70286966
H        5.23443696      -3.16645620       3.24882839
H        2.72455494      -1.66076294       3.93740637
H        2.42134713      -2.87335369       2.72746486
H        0.61265857      -3.80573052      -1.71806622
H        0.23594591      -3.40516041      -0.00011860
H        1.48268474      -4.58426893      -0.41307936
O        3.95161183      -3.82340993       4.68627153
O        4.12436953      -1.73096631      -0.45072124
O        2.82824008      -2.80759763      -1.85529384
22
Properties=species:S:1:pos:R:3 energy=-1893.019453290587 pbc="F F F"
C        3.62302583      -1.23511458       2.05164192
C        2.34806945      -0.97791556       1.23148702
C        2.48812834      -1.30532082      -0.23479089
C        2.11308152      -2.61668352      -0.91318536
C        4.24673205      -3.14593776       3.73933439
C        3.23632895      -2.20434099       3.15081640
H        4.45506057      -1.60543862       1.41485059
H        3.99258027      -0.28670174       2.48545210
H        1.47935723      -1.53115210       1.65940092
H        2.08024384       0.09369102       1.36350565
H        1.93703261      -0.56755405      -0.81414123
H        4.07236177      -1.11947899      -1.23557478
C        1.04683145      -3.63355481      -0.71439479
H        5.22577105      -3.18992235       3.25144209
H        2.76752447      -1.62474190       3.96075659
H        2.41058137      -2.83778705       2.76992188
H        0.62655420      -3.83309564      -1.73401642
H        0.22389721      -3.41730909      -0.02666594
H        1.48992188      -4.58435710      -0.40630347
O        3.93996829      -3.82142382       4.69745822
O        4.10185769      -1.67476207      -0.45483851
O        2.77437698      -2.76320146      -1.90609536
22
Properties=species:S:1:pos:R:3 energy=-1893.3137171701976 pbc="F F F"
C        3.63349405      -1.24020591       2.05171946
C        2.35129560      -1.00047003       1.23771683
C        2.48668664      -1.31232592      -0.22969775
C        2.09663942      -2.60938943      -0.93147903
C        4.24295282      -3.14929594       3.74938822
C        3.24926415      -2.18623231       3.17033933
H        4.46166953      -1.62152830       1.41673477
H        4.00604888      -0.28425344       2.46517267
H        1.49446869      -1.56966427       1.66506043
H        2.06692454       0.06502289       1.37817473
H        1.94682029      -0.55955828      -0.80196943
H        4.08977707      -1.13723777      -1.24957770
C        1.04723413      -3.64330145      -0.72627761
H        5.21621449      -3.21323812       3.25418943
H        2.81153768      -1.58917488       3.98313679
H        2.40085870      -2.80096314       2.81224681
H        0.64163244      -3.85957297      -1.75011660
H        0.21217150      -3.42974451      -0.05421901
H        1.49709435      -4.58409378      -0.39992370
O        3.92768513      -3.81874308       4.70868583
O        4.07947372      -1.61970841      -0.45932729
O        2.71934318      -2.71842398      -1.95391617
22
Properties=species:S:1:pos:R:3 energy=-1893.5343156517927 pbc="F F F"
C        3.64395870      -1.24547692       2.05159161
C        2.35472600      -1.02353944       1.24373689
C        2.48526649      -1.31951380      -0.22482039
C        2.07995257      -2.60164028      -0.94906242
C        4.23865103      -3.15228421       3.75938960
C        3.26252178      -2.16789328       3.18946202
H        4.46844987      -1.63768719       1.41879335
H        4.01915506      -0.28217587       2.44443120
H        1.51026703      -1.60878801       1.67029043
H        2.05366864       0.03542952       1.39268811
H        1.95640971      -0.55120143      -0.78976657
H        4.10557237      -1.15551821      -1.26217446
C        1.04812705      -3.65282925      -0.73850380
H        5.20576885      -3.23636881       3.25707075
H        2.85653973      -1.55412205       4.00450806
H        2.39220824      -2.76292480       2.85437529
H        0.65788105      -3.88511301      -1.76633604
H        0.20080045      -3.44245095      -0.08275462
H        1.50418858      -4.58347448      -0.39395527
O        3.91477731      -3.81536240       4.71993487
O        4.05717869      -1.56582787      -0.46416986
O        2.66321779      -2.67334024      -1.99866775
22
Properties=species:S:1:pos:R:3 energy=-1893.6932507840254 pbc="F F F"
C        3.65440137      -1.25092190       2.05125772
C        2.35836357      -1.04709645       1.24953247
C        2.48390408      -1.32690945      -0.22016913
C        2.06303297      -2.59346176      -0.96589675
C        4.23382506      -3.15489014       3.76932472
C        3.27608317      -2.14934896       3.20815435
H        4.47539480      -1.65389345       1.42102625
H        4.03187798      -0.28047717       2.42325209
H        1.52674409      -1.64847249       1.67507502
H        2.04049766       0.00493916       1.40702114
H        1.96580053      -0.54246505      -0.77756243
H        4.11972210      -1.17434013      -1.27332511
C        1.04950110      -3.66210852      -0.75105900
H        5.19443571      -3.25927973       3.26008636
H        2.90247579      -1.51964362       4.02483147
H        2.38465909      -2.72371489       2.89624299
H        0.67528777      -3.90966626      -1.78264401
H        0.18981573      -3.45541270      -0.11224959
H        1.51119102      -4.58249469      -0.38841338
O        3.90125978      -3.81127648       4.73118585
O        4.03493367      -1.51314300      -0.46934849
O        2.60607996      -2.62802530      -2.04026153
22
Properties=species:S:1:pos:R:3 energy=-1893.802240441198 pbc="F F F"
C        3.66480367      -1.25653515       2.05071713
C        2.36221123      -1.07111371       1.25508886
C        2.48263562      -1.33453782      -0.21575428
C        2.04589267      -2.58487952      -0.98194320
C        4.22847328      -3.15710129       3.77917981
C        3.28992964      -2.13062442       3.22638620
H        4.48249751      -1.67012525       1.42343337
H        4.04419684      -0.27916547       2.40165976
H        1.54389166      -1.68866687       1.67939826
H        2.02743309      -0.02641990       1.42114918
H        1.97499238      -0.53333069      -0.76538679
H        4.13220068      -1.19372339      -1.28298970
C        1.05134716      -3.67110957      -0.76392888
H        5.18221666      -3.28193617       3.26323660
H        2.94929104      -1.48579978       4.04406810
H        2.37824034      -2.68337626       2.93778554
H        0.69384035      -3.93318322      -1.79900979