2
Properties=species:S:1:pos:R:3 energy=-2058.597969565623 pbc="F F F"
O        1.02774900       0.08015700       0.04725200
H        2.04552200       0.08015700       0.04725200
