7
Properties=species:S:1:pos:R:3 energy=-3168.8080918613673 pbc="F F F"
C        0.94921100      -0.01514300       0.03106300
C        0.46135000      -0.02720300      -1.34860900
C        0.05952100      -0.03714200      -2.48540300
H        0.59593700      -0.89810400       0.57702700
H        0.59593800       0.87722700       0.56151100
H        2.04550000      -0.01492600       0.05668300
H       -0.29427400      -0.04590800      -3.48605800
