 Entering Gaussian System, Link 0=g09
 Initial command:
 /apps/applications/gaussian/G09.D01/2/default/g09/l1.exe "/nobackup/chmrsh/Scratch/Gau-141996.inp" -scrdir="/nobackup/chmrsh/Scratch/"
 Entering Link 1 = /apps/applications/gaussian/G09.D01/2/default/g09/l1.exe PID=    141998.
  
 Copyright (c) 1988,1990,1992,1993,1995,1998,2003,2009,2013,
            Gaussian, Inc.  All Rights Reserved.
  
 This is part of the Gaussian(R) 09 program.  It is based on
 the Gaussian(R) 03 system (copyright 2003, Gaussian, Inc.),
 the Gaussian(R) 98 system (copyright 1998, Gaussian, Inc.),
 the Gaussian(R) 94 system (copyright 1995, Gaussian, Inc.),
 the Gaussian 92(TM) system (copyright 1992, Gaussian, Inc.),
 the Gaussian 90(TM) system (copyright 1990, Gaussian, Inc.),
 the Gaussian 88(TM) system (copyright 1988, Gaussian, Inc.),
 the Gaussian 86(TM) system (copyright 1986, Carnegie Mellon
 University), and the Gaussian 82(TM) system (copyright 1983,
 Carnegie Mellon University). Gaussian is a federally registered
 trademark of Gaussian, Inc.
  
 This software contains proprietary and confidential information,
 including trade secrets, belonging to Gaussian, Inc.
  
 This software is provided under written license and may be
 used, copied, transmitted, or stored only in accord with that
 written license.
  
 The following legend is applicable only to US Government
 contracts under FAR:
  
                    RESTRICTED RIGHTS LEGEND
  
 Use, reproduction and disclosure by the US Government is
 subject to restrictions as set forth in subparagraphs (a)
 and (c) of the Commercial Computer Software - Restricted
 Rights clause in FAR 52.227-19.
  
 Gaussian, Inc.
 340 Quinnipiac St., Bldg. 40, Wallingford CT 06492
  
  
 ---------------------------------------------------------------
 Warning -- This program may not be used in any manner that
 competes with the business of Gaussian, Inc. or will provide
 assistance to any competitor of Gaussian, Inc.  The licensee
 of this program is prohibited from giving any competitor of
 Gaussian, Inc. access to this program.  By using this program,
 the user acknowledges that Gaussian, Inc. is engaged in the
 business of creating and licensing software in the field of
 computational chemistry and represents and warrants to the
 licensee that it is not a competitor of Gaussian, Inc. and that
 it will not use this program in any manner prohibited above.
 ---------------------------------------------------------------
  

 Cite this work as:
 Gaussian 09, Revision D.01,
 M. J. Frisch, G. W. Trucks, H. B. Schlegel, G. E. Scuseria, 
 M. A. Robb, J. R. Cheeseman, G. Scalmani, V. Barone, B. Mennucci, 
 G. A. Petersson, H. Nakatsuji, M. Caricato, X. Li, H. P. Hratchian, 
 A. F. Izmaylov, J. Bloino, G. Zheng, J. L. Sonnenberg, M. Hada, 
 M. Ehara, K. Toyota, R. Fukuda, J. Hasegawa, M. Ishida, T. Nakajima, 
 Y. Honda, O. Kitao, H. Nakai, T. Vreven, J. A. Montgomery, Jr., 
 J. E. Peralta, F. Ogliaro, M. Bearpark, J. J. Heyd, E. Brothers, 
 K. N. Kudin, V. N. Staroverov, T. Keith, R. Kobayashi, J. Normand, 
 K. Raghavachari, A. Rendell, J. C. Burant, S. S. Iyengar, J. Tomasi, 
 M. Cossi, N. Rega, J. M. Millam, M. Klene, J. E. Knox, J. B. Cross, 
 V. Bakken, C. Adamo, J. Jaramillo, R. Gomperts, R. E. Stratmann, 
 O. Yazyev, A. J. Austin, R. Cammi, C. Pomelli, J. W. Ochterski, 
 R. L. Martin, K. Morokuma, V. G. Zakrzewski, G. A. Voth, 
 P. Salvador, J. J. Dannenberg, S. Dapprich, A. D. Daniels, 
 O. Farkas, J. B. Foresman, J. V. Ortiz, J. Cioslowski, 
 and D. J. Fox, Gaussian, Inc., Wallingford CT, 2013.
 
 ******************************************
 Gaussian 09:  ES64L-G09RevD.01 24-Apr-2013
                 6-Jan-2021 
 ******************************************
 ----------------------------------------------------------------------
 #P b3lyp/3-21G scf=qc opt(calcall, ts, noeigentest, cartesian,maxcycle
 =100)
 ----------------------------------------------------------------------
 1/5=1,6=100,10=4,11=1,14=-1,18=10,26=3,38=1/1,3;
 2/12=2,17=6,18=5,29=2,40=1/2;
 3/5=5,11=2,16=1,25=1,30=1,71=2,74=-5,140=1/1,2,3;
 4//1;
 5/5=2,8=3,38=5/8;
 8/6=4,10=90,11=11/1;
 11/6=1,8=1,9=11,15=111,16=1/1,2,10;
 10/6=1/2;
 6/7=2,8=2,9=2,10=2,18=1,28=1/1;
 7/7=1,10=1,25=1/1,2,3,16;
 1/5=1,6=100,10=4,11=1,14=-1,18=10,26=3/3(3);
 2/29=1/2;
 7/7=1,8=1,9=1,25=1,44=-1/16;
 99/12=1/99;
 2/29=1/2;
 3/5=5,11=2,16=1,25=1,30=1,71=2,74=-5,140=1/1,2,3;
 4/5=5,16=3,69=1/1;
 5/5=2,8=3,38=5/8;
 8/6=4,10=90,11=11/1;
 11/6=1,8=1,9=11,15=111,16=1/1,2,10;
 10/6=1/2;
 7/7=1,10=1,25=1/1,2,3,16;
 1/5=1,6=100,10=4,11=1,14=-1,18=10,26=3/3(-8);
 2/29=1/2;
 6/7=2,8=2,9=2,10=2,18=1,19=2,28=1/1;
 7/7=1,8=1,9=1,25=1,44=-1/16;
 99/12=1/99;
 Leave Link    1 at Wed Jan  6 20:20:09 2021, MaxMem=           0 cpu:         0.1
 (Enter /apps/applications/gaussian/G09.D01/2/default/g09/l101.exe)
 ------------------------------
 Gaussian input prepared by ASE
 ------------------------------
 Symbolic Z-matrix:
 Charge =  0 Multiplicity = 2
 C                    -0.53458   1.13066  -0.90201 
 C                    -0.05379   0.07808  -0.11015 
 H                    -1.59381   1.27793  -1.04248 
 H                     0.09691   1.6016   -1.63877 
 H                    -0.11824   1.36669   0.40659 
 C                     0.29218  -1.14427   0.20732 
 H                     0.24359  -2.03613  -0.41452 
 O                     0.79667  -1.51725   1.43529 
 H                     0.87107  -0.75731   2.05873 
 
 NAtoms=      9 NQM=        9 NQMF=       0 NMMI=      0 NMMIF=      0
                NMic=       0 NMicF=      0.
                    Isotopes and Nuclear Properties:
 (Nuclear quadrupole moments (NQMom) in fm**2, nuclear magnetic moments (NMagM)
  in nuclear magnetons)

  Atom         1           2           3           4           5           6           7           8           9
 IAtWgt=          12          12           1           1           1          12           1          16           1
 AtmWgt=  12.0000000  12.0000000   1.0078250   1.0078250   1.0078250  12.0000000   1.0078250  15.9949146   1.0078250
 NucSpn=           0           0           1           1           1           0           1           0           1
 AtZEff=   0.0000000   0.0000000   0.0000000   0.0000000   0.0000000   0.0000000   0.0000000   0.0000000   0.0000000
 NQMom=    0.0000000   0.0000000   0.0000000   0.0000000   0.0000000   0.0000000   0.0000000   0.0000000   0.0000000
 NMagM=    0.0000000   0.0000000   2.7928460   2.7928460   2.7928460   0.0000000   2.7928460   0.0000000   2.7928460
 AtZNuc=   6.0000000   6.0000000   1.0000000   1.0000000   1.0000000   6.0000000   1.0000000   8.0000000   1.0000000
 Leave Link  101 at Wed Jan  6 20:20:10 2021, MaxMem=    33554432 cpu:         0.2
 (Enter /apps/applications/gaussian/G09.D01/2/default/g09/l103.exe)

 GradGradGradGradGradGradGradGradGradGradGradGradGradGradGradGradGradGrad
 Berny optimization.
 Initialization pass.
 No Z-matrix variables, so optimization will use Cartesian coordinates.
 Trust Radius=3.00D-01 FncErr=1.00D-07 GrdErr=1.00D-06
 Number of steps in this run=    100 maximum allowed number of steps=    100.
 Search for a saddle point of order  1.
 GradGradGradGradGradGradGradGradGradGradGradGradGradGradGradGradGradGrad

 Leave Link  103 at Wed Jan  6 20:20:10 2021, MaxMem=    33554432 cpu:         0.0
 (Enter /apps/applications/gaussian/G09.D01/2/default/g09/l202.exe)
 ---------------------------------------------------------------------------------------------------
                            Z-MATRIX (ANGSTROMS AND DEGREES)
   CD    Cent   Atom    N1       Length/X        N2       Alpha/Y        N3        Beta/Z          J
 ---------------------------------------------------------------------------------------------------
      1      1  C        0  -0.534579          1.130656         -0.902015
      2      2  C        0  -0.053794          0.078084         -0.110146
      3      3  H        0  -1.593808          1.277931         -1.042481
      4      4  H        0   0.096911          1.601602         -1.638775
      5      5  H        0  -0.118237          1.366695          0.406592
      6      6  C        0   0.292177         -1.144275          0.207321
      7      7  H        0   0.243592         -2.036131         -0.414524
      8      8  O        0   0.796670         -1.517252          1.435295
      9      9  H        0   0.871068         -0.757309          2.058732
 ---------------------------------------------------------------------------------------------------
                         Z-Matrix orientation:                         
 ---------------------------------------------------------------------
 Center     Atomic      Atomic             Coordinates (Angstroms)
 Number     Number       Type             X           Y           Z
 ---------------------------------------------------------------------
      1          6           0       -0.534579    1.130656   -0.902015
      2          6           0       -0.053794    0.078084   -0.110146
      3          1           0       -1.593808    1.277931   -1.042481
      4          1           0        0.096911    1.601602   -1.638775
      5          1           0       -0.118237    1.366695    0.406592
      6          6           0        0.292177   -1.144275    0.207321
      7          1           0        0.243592   -2.036131   -0.414524
      8          8           0        0.796670   -1.517252    1.435295
      9          1           0        0.871068   -0.757309    2.058732
 ---------------------------------------------------------------------
                    Distance matrix (angstroms):
                    1          2          3          4          5
     1  C    0.000000
     2  C    1.402184   0.000000
     3  H    1.078603   2.163452   0.000000
     4  H    1.078603   2.163452   1.821774   0.000000
     5  H    1.393380   1.389853   2.070025   2.070023   0.000000
     6  C    2.662605   1.309443   3.314517   3.314519   2.552081
     7  H    3.297232   2.156615   3.841012   3.841016   3.519144
     8  O    3.774475   2.378397   4.434727   4.434728   3.195690
     9  H    3.782365   2.501456   4.453688   4.453688   2.866999
                    6          7          8          9
     6  C    0.000000
     7  H    1.088329   0.000000
     8  O    1.378965   1.999240   0.000000
     9  H    1.978025   2.854139   0.985760   0.000000
 Stoichiometry    C3H5O(2)
 Framework group  C1[X(C3H5O)]
 Deg. of freedom    21
 Full point group                 C1      NOp   1
 Largest Abelian subgroup         C1      NOp   1
 Largest concise Abelian subgroup C1      NOp   1
                         Standard orientation:                         
 ---------------------------------------------------------------------
 Center     Atomic      Atomic             Coordinates (Angstroms)
 Number     Number       Type             X           Y           Z
 ---------------------------------------------------------------------
      1          6           0        1.944814   -0.063490    0.000000
      2          6           0        0.543298   -0.020208   -0.000001
      3          1           0        2.502768    0.086038    0.910887
      4          1           0        2.502769    0.086030   -0.910887
      5          1           0        1.203451   -1.243273    0.000003
      6          6           0       -0.656586    0.504119    0.000000
      7          1           0       -0.925811    1.558623    0.000000
      8          8           0       -1.826142   -0.226416    0.000000
      9          1           0       -1.663201   -1.198616    0.000001
 ---------------------------------------------------------------------
 Rotational constants (GHZ):     45.7238088      3.9909933      3.7619983
 Leave Link  202 at Wed Jan  6 20:20:10 2021, MaxMem=    33554432 cpu:         0.0
 (Enter /apps/applications/gaussian/G09.D01/2/default/g09/l301.exe)
 Standard basis: 3-21G (6D, 7F)
 Ernie: Thresh=  0.10000D-02 Tol=  0.10000D-05 Strict=F.
 There are    46 symmetry adapted cartesian basis functions of A   symmetry.
 There are    46 symmetry adapted basis functions of A   symmetry.
    46 basis functions,    75 primitive gaussians,    46 cartesian basis functions
    16 alpha electrons       15 beta electrons
       nuclear repulsion energy       108.2120717778 Hartrees.
 IExCor=  402 DFT=T Ex+Corr=B3LYP ExCW=0 ScaHFX=  0.200000
 ScaDFX=  0.800000  0.720000  1.000000  0.810000 ScalE2=  1.000000  1.000000
 IRadAn=      0 IRanWt=     -1 IRanGd=            0 ICorTp=0 IEmpDi=  4
 NAtoms=    9 NActive=    9 NUniq=    9 SFac= 1.00D+00 NAtFMM=   60 NAOKFM=F Big=F
 Integral buffers will be    131072 words long.
 Raffenetti 2 integral format.
 Two-electron integral symmetry is turned on.
 Leave Link  301 at Wed Jan  6 20:20:10 2021, MaxMem=    33554432 cpu:         0.1
 (Enter /apps/applications/gaussian/G09.D01/2/default/g09/l302.exe)
 NPDir=0 NMtPBC=     1 NCelOv=     1 NCel=       1 NClECP=     1 NCelD=      1
         NCelK=      1 NCelE2=     1 NClLst=     1 CellRange=     0.0.
 One-electron integrals computed using PRISM.
 NBasis=    46 RedAO= T EigKep=  4.02D-03  NBF=    46
 NBsUse=    46 1.00D-06 EigRej= -1.00D+00 NBFU=    46
 Precomputing XC quadrature grid using
 IXCGrd= 4 IRadAn=           0 IRanWt=          -1 IRanGd=           0 AccXCQ= 0.00D+00.
 Generated NRdTot=       0 NPtTot=           0 NUsed=           0 NTot=          32
 NSgBfM=    46    46    46    46    46 MxSgAt=     9 MxSgA2=     9.
 Leave Link  302 at Wed Jan  6 20:20:10 2021, MaxMem=    33554432 cpu:         0.2
 (Enter /apps/applications/gaussian/G09.D01/2/default/g09/l303.exe)
 DipDrv:  MaxL=1.
 Leave Link  303 at Wed Jan  6 20:20:10 2021, MaxMem=    33554432 cpu:         0.0
 (Enter /apps/applications/gaussian/G09.D01/2/default/g09/l401.exe)
 ExpMin= 1.83D-01 ExpMax= 3.22D+02 ExpMxC= 3.22D+02 IAcc=1 IRadAn=         1 AccDes= 0.00D+00
 Harris functional with IExCor=  402 and IRadAn=       1 diagonalized for initial guess.
 HarFok:  IExCor=  402 AccDes= 0.00D+00 IRadAn=         1 IDoV= 1 UseB2=F ITyADJ=14
 ICtDFT=  3500011 ScaDFX=  1.000000  1.000000  1.000000  1.000000
 FoFCou: FMM=F IPFlag=           0 FMFlag=      100000 FMFlg1=           0
         NFxFlg=           0 DoJE=T BraDBF=F KetDBF=T FulRan=T
         wScrn=  0.000000 ICntrl=     500 IOpCl=  0 I1Cent=   200000004 NGrid=           0
         NMat0=    1 NMatS0=      1 NMatT0=    0 NMatD0=    1 NMtDS0=    0 NMtDT0=    0
 Petite list used in FoFCou.
 Harris En= -191.298893696122    
 JPrj=0 DoOrth=F DoCkMO=F.
 Initial guess <Sx>= 0.0000 <Sy>= 0.0000 <Sz>= 0.5000 <S**2>= 0.7500 S= 0.5000
 Leave Link  401 at Wed Jan  6 20:20:10 2021, MaxMem=    33554432 cpu:         0.2
 (Enter /apps/applications/gaussian/G09.D01/2/default/g09/l508.exe)
 Direct SCF.
 Tight linear equation convergence will be used.
 UB3LYP wavefunction.
 Quadratic Convergence SCF Method.
 Line search only if initial step raises energy.
 Integral symmetry usage will be decided dynamically.
 ReadGW:  IGet=1 IStart=         402 Next=         402 LGW=           0.
 Keep R1 and R2 ints in memory in canonical form, NReq=2054798.
 FoFCou: FMM=F IPFlag=           0 FMFlag=           0 FMFlg1=           0
         NFxFlg=           0 DoJE=F BraDBF=F KetDBF=F FulRan=T
         wScrn=  0.000000 ICntrl=     600 IOpCl=  0 I1Cent=           0 NGrid=           0
         NMat0=    1 NMatS0=   1081 NMatT0=    0 NMatD0=    1 NMtDS0=    0 NMtDT0=    0
 Symmetry not used in FoFCou.
 Iteration   1 EE= -191.196350040984                                    Grad=4.380D-01 Max rot=    3.9225 deg.
 Gradient too large for Newton-Raphson -- use scaled steepest descent instead.
 Alpha Gap=     0.172 HL deriv= 6.55D-09
  Beta Gap=     0.185 HL deriv= 1.65D-07
     ILin= 1 X=0.000D+00 Y=-1.911963500410D+02 DE= 0.00D+00 F= -4.03D-01
     ILin= 2 X=3.000D-01 Y=-1.912775691729D+02 DE=-8.12D-02 F= -1.38D-01
     ILin= 3 X=4.000D-01 Y=-1.912868924768D+02 DE=-9.05D-02 F= -4.86D-02
     ILin= 4 X=6.000D-01 Y=-1.912787693575D+02 DE=-8.24D-02 F=  1.30D-01
     An  expanding polynomial of degree  4 produced  0.4546
 Iteration   2 EE= -191.288215883697     Delta-E=       -0.091865842713 Grad=9.087D-02 Max rot=    1.0913 deg.
 Gradient too large for Newton-Raphson -- use scaled steepest descent instead.
 Alpha Gap=     0.195 HL deriv= 4.74D-07
  Beta Gap=     0.188 HL deriv= 7.79D-08
     ILin= 1 X=0.000D+00 Y=-1.912882158837D+02 DE= 0.00D+00 F= -1.20D-02
     ILin= 2 X=4.000D-01 Y=-1.912913226962D+02 DE=-3.11D-03 F= -3.52D-03
     ILin= 3 X=7.000D-01 Y=-1.912914253927D+02 DE=-3.21D-03 F=  2.82D-03
     Accept linear search using points  2 and  3.
     An  expanding polynomial of degree  3 produced  0.5491
 Iteration   3 EE= -191.291611409880     Delta-E=       -0.003395526183 Grad=3.984D-02 Max rot=    0.4379 deg.
 Gradient too large for Newton-Raphson -- use scaled steepest descent instead.
 Alpha Gap=     0.183 HL deriv= 5.16D-08
  Beta Gap=     0.197 HL deriv= 1.45D-07
     ILin= 1 X=0.000D+00 Y=-1.912916114099D+02 DE= 0.00D+00 F= -2.54D-03
     ILin= 2 X=5.000D-01 Y=-1.912923189890D+02 DE=-7.08D-04 F= -2.91D-04
     ILin= 3 X=1.000D+00 Y=-1.912919020188D+02 DE=-2.91D-04 F=  1.96D-03
     An  expanding polynomial of degree  3 produced  0.5646
 Iteration   4 EE= -191.292328370239     Delta-E=       -0.000716960359 Grad=1.896D-02 Max rot=    0.2144 deg.
 Gradient too large for Newton-Raphson -- use scaled steepest descent instead.
 Alpha Gap=     0.191 HL deriv= 1.85D-07
  Beta Gap=     0.192 HL deriv= 2.44D-08
     ILin= 1 X=0.000D+00 Y=-1.912923283702D+02 DE= 0.00D+00 F= -7.23D-04
     ILin= 2 X=6.000D-01 Y=-1.912925212073D+02 DE=-1.93D-04 F=  7.99D-05
     Accept linear search using points  1 and  2.
     An  expanding polynomial of degree  2 produced  0.4335
 Iteration   5 EE= -191.292515997302     Delta-E=       -0.000187627063 Grad=9.906D-03 Max rot=    0.1181 deg.
 QCNR:  CnvC1=3.07D-09 CnvC2=3.07D-08
 LinEq1:  Iter=  0 NonCon=     1 RMS=4.19D-04 Max=6.48D-03 NDo=     1
 AX will form     1 AO Fock derivatives at one time.
 LinEq1:  Iter=  1 NonCon=     1 RMS=3.95D-04 Max=8.19D-03 NDo=     1
 LinEq1:  Iter=  2 NonCon=     1 RMS=1.76D-04 Max=2.59D-03 NDo=     1
 LinEq1:  Iter=  3 NonCon=     1 RMS=1.00D-04 Max=1.23D-03 NDo=     1
 LinEq1:  Iter=  4 NonCon=     1 RMS=6.62D-05 Max=7.74D-04 NDo=     1
 LinEq1:  Iter=  5 NonCon=     1 RMS=2.15D-05 Max=2.25D-04 NDo=     1
 LinEq1:  Iter=  6 NonCon=     1 RMS=1.23D-05 Max=1.07D-04 NDo=     1
 LinEq1:  Iter=  7 NonCon=     1 RMS=2.99D-06 Max=3.36D-05 NDo=     1
 LinEq1:  Iter=  8 NonCon=     1 RMS=2.08D-06 Max=4.23D-05 NDo=     1
 LinEq1:  Iter=  9 NonCon=     1 RMS=1.02D-06 Max=1.29D-05 NDo=     1
 LinEq1:  Iter= 10 NonCon=     1 RMS=2.60D-07 Max=2.45D-06 NDo=     1
 LinEq1:  Iter= 11 NonCon=     1 RMS=7.15D-08 Max=9.59D-07 NDo=     1
 LinEq1:  Iter= 12 NonCon=     1 RMS=1.35D-08 Max=1.18D-07 NDo=     1
 LinEq1:  Iter= 13 NonCon=     0 RMS=2.38D-09 Max=1.75D-08 NDo=     1
 Linear equations converged to 3.074D-09 3.074D-08 after    13 iterations.
 Angle between quadratic step and gradient=  54.24 degrees.
     ILin= 1 X=0.000D+00 Y=-1.912925159973D+02 DE= 0.00D+00 F= -2.61D-04
     ILin= 2 X=1.000D+00 Y=-1.912926460650D+02 DE=-1.30D-04 F=  6.92D-07
     Accept linear search using points  1 and  2.
     An  expanding polynomial of degree  2 produced  0.9974
     Minimum is close to point  2 DX= -2.64D-03 DF= -9.14D-10 DXR=  2.65D-03 DFR=  7.03D-06 which will be used.
 Iteration   6 EE= -191.292646065011     Delta-E=       -0.000130067709 Grad=3.351D-05 Max rot=    0.0005 deg.
 QCNR:  CnvC1=3.35D-10 CnvC2=3.35D-09
 LinEq1:  Iter=  0 NonCon=     1 RMS=2.19D-06 Max=3.53D-05 NDo=     1
 LinEq1:  Iter=  1 NonCon=     1 RMS=1.75D-06 Max=2.73D-05 NDo=     1
 LinEq1:  Iter=  2 NonCon=     1 RMS=1.19D-06 Max=1.96D-05 NDo=     1
 LinEq1:  Iter=  3 NonCon=     1 RMS=6.54D-07 Max=7.69D-06 NDo=     1
 LinEq1:  Iter=  4 NonCon=     1 RMS=4.02D-07 Max=4.11D-06 NDo=     1
 LinEq1:  Iter=  5 NonCon=     1 RMS=2.27D-07 Max=2.90D-06 NDo=     1
 LinEq1:  Iter=  6 NonCon=     1 RMS=1.22D-07 Max=1.25D-06 NDo=     1
 LinEq1:  Iter=  7 NonCon=     1 RMS=3.73D-08 Max=3.35D-07 NDo=     1
 LinEq1:  Iter=  8 NonCon=     1 RMS=2.75D-08 Max=2.92D-07 NDo=     1
 LinEq1:  Iter=  9 NonCon=     1 RMS=1.03D-08 Max=1.05D-07 NDo=     1
 LinEq1:  Iter= 10 NonCon=     1 RMS=2.34D-09 Max=2.22D-08 NDo=     1
 LinEq1:  Iter= 11 NonCon=     1 RMS=4.15D-10 Max=3.68D-09 NDo=     1
 LinEq1:  Iter= 12 NonCon=     0 RMS=6.07D-11 Max=4.68D-10 NDo=     1
 Linear equations converged to 3.351D-10 3.351D-09 after    12 iterations.
 Angle between quadratic step and gradient=  48.84 degrees.
     ILin= 1 X=0.000D+00 Y=-1.912926460650D+02 DE= 0.00D+00 F= -4.49D-09
     ILin= 2 X=1.000D+00 Y=-1.912926460673D+02 DE=-2.24D-09
 Iteration   7 EE= -191.292646067255     Delta-E=       -0.000000002245 Grad=1.469D-09 Max rot=    0.0000 deg.
 Rotation gradient small -- convergence achieved.
 SCF Done:  E(UB3LYP) =  -191.292646067     a.u. after    7 cycles
            Convg  =    0.1469D-08                    40 Fock formations.
              S**2 =  0.7619                  -V/T =  2.0080
 <Sx>= 0.0000 <Sy>= 0.0000 <Sz>= 0.5000 <S**2>= 0.7619 S= 0.5060
 <L.S>= 0.000000000000E+00
 Annihilation of the first spin contaminant:
 S**2 before annihilation     0.7619,   after     0.7501
 Leave Link  508 at Wed Jan  6 20:20:39 2021, MaxMem=    33554432 cpu:        28.3
 (Enter /apps/applications/gaussian/G09.D01/2/default/g09/l801.exe)
 DoSCS=F DFT=T ScalE2(SS,OS)=  1.000000  1.000000
 Range of M.O.s used for correlation:     1    46
 NBasis=    46 NAE=    16 NBE=    15 NFC=     0 NFV=     0
 NROrb=     46 NOA=    16 NOB=    15 NVA=    30 NVB=    31
 Leave Link  801 at Wed Jan  6 20:20:39 2021, MaxMem=    33554432 cpu:         0.0
 (Enter /apps/applications/gaussian/G09.D01/2/default/g09/l1101.exe)
 Using compressed storage, NAtomX=     9.
 Will process     10 centers per pass.
 Leave Link 1101 at Wed Jan  6 20:20:39 2021, MaxMem=    33554432 cpu:         0.1
 (Enter /apps/applications/gaussian/G09.D01/2/default/g09/l1102.exe)
 Symmetrizing basis deriv contribution to polar:
 IMax=3 JMax=2 DiffMx= 0.00D+00
 Leave Link 1102 at Wed Jan  6 20:20:39 2021, MaxMem=    33554432 cpu:         0.1
 (Enter /apps/applications/gaussian/G09.D01/2/default/g09/l1110.exe)
 Forming Gx(P) for the SCF density, NAtomX=     9.
 Integral derivatives from FoFJK, PRISM(SPDF).
 Do as many integral derivatives as possible in FoFJK.
 G2DrvN: MDV=      33554256.
 G2DrvN: will do    10 centers at a time, making    1 passes.
 Calling FoFCou, ICntrl=  3107 FMM=F I1Cent=   0 AccDes= 0.00D+00.
 FoFJK:  IHMeth= 1 ICntrl=    3107 DoSepK=F KAlg= 0 I1Cent=   0 FoldK=F
 IRaf=         0 NMat=   1 IRICut=       1 DoRegI=T DoRafI=F ISym2E= 0.
 FoFCou: FMM=F IPFlag=           0 FMFlag=      100000 FMFlg1=           0
         NFxFlg=           0 DoJE=F BraDBF=F KetDBF=F FulRan=T
         wScrn=  0.000000 ICntrl=    3107 IOpCl=  1 I1Cent=           0 NGrid=           0
         NMat0=    1 NMatS0=      1 NMatT0=    0 NMatD0=    1 NMtDS0=    0 NMtDT0=    0
 Symmetry not used in FoFCou.
 End of G2Drv F.D. properties file   721 does not exist.
 End of G2Drv F.D. properties file   722 does not exist.
 End of G2Drv F.D. properties file   788 does not exist.
 Leave Link 1110 at Wed Jan  6 20:20:49 2021, MaxMem=    33554432 cpu:        10.3
 (Enter /apps/applications/gaussian/G09.D01/2/default/g09/l1002.exe)
 Minotr:  UHF open shell wavefunction.
          IDoAtm=111111111
          Direct CPHF calculation.
          Differentiating once with respect to electric field.
                with respect to dipole field.
          Differentiating once with respect to nuclear coordinates.
          Requested convergence is 1.0D-08 RMS, and 1.0D-07 maximum.
          Secondary convergence is 1.0D-12 RMS, and 1.0D-12 maximum.
          NewPWx=T KeepS1=F KeepF1=F KeepIn=T MapXYZ=F SortEE=F KeepMc=T.
          MDV=      33554246 using IRadAn=       2.
 Generate precomputed XC quadrature information.
 Keep R1 and R2 ints in memory in canonical form, NReq=2035813.
 FoFCou: FMM=F IPFlag=           0 FMFlag=           0 FMFlg1=           0
         NFxFlg=           0 DoJE=F BraDBF=F KetDBF=F FulRan=T
         wScrn=  0.000000 ICntrl=     600 IOpCl=  0 I1Cent=           0 NGrid=           0
         NMat0=    1 NMatS0=   1081 NMatT0=    0 NMatD0=    1 NMtDS0=    0 NMtDT0=    0
 Symmetry not used in FoFCou.
          Solving linear equations simultaneously, MaxMat=       0.
          There are    30 degrees of freedom in the 1st order CPHF.  IDoFFX=6 NUNeed=     3.
     27 vectors produced by pass  0 Test12= 3.15D-15 3.33D-09 XBig12= 1.54D+02 6.55D+00.
 AX will form    27 AO Fock derivatives at one time.
     27 vectors produced by pass  1 Test12= 3.15D-15 3.33D-09 XBig12= 1.97D+01 8.76D-01.
     27 vectors produced by pass  2 Test12= 3.15D-15 3.33D-09 XBig12= 2.05D-01 9.68D-02.
     27 vectors produced by pass  3 Test12= 3.15D-15 3.33D-09 XBig12= 1.33D-03 1.16D-02.
     27 vectors produced by pass  4 Test12= 3.15D-15 3.33D-09 XBig12= 2.79D-06 2.91D-04.
     27 vectors produced by pass  5 Test12= 3.15D-15 3.33D-09 XBig12= 4.35D-09 1.20D-05.
      9 vectors produced by pass  6 Test12= 3.15D-15 3.33D-09 XBig12= 6.69D-12 3.82D-07.
      2 vectors produced by pass  7 Test12= 3.15D-15 3.33D-09 XBig12= 1.34D-14 2.00D-08.
 InvSVY:  IOpt=1 It=  1 EMax= 5.33D-15
 Solved reduced A of dimension   173 with    30 vectors.
 FullF1:  Do perturbations    1 to     3.
 Isotropic polarizability for W=    0.000000       35.39 Bohr**3.
 End of Minotr F.D. properties file   721 does not exist.
 End of Minotr F.D. properties file   722 does not exist.
 End of Minotr F.D. properties file   788 does not exist.
 Leave Link 1002 at Wed Jan  6 20:20:59 2021, MaxMem=    33554432 cpu:         9.3
 (Enter /apps/applications/gaussian/G09.D01/2/default/g09/l601.exe)
 Copying SCF densities to generalized density rwf, IOpCl= 1 IROHF=0.

 **********************************************************************

            Population analysis using the SCF density.

 **********************************************************************

 Orbital symmetries:
 Alpha Orbitals:
       Occupied  (A) (A) (A) (A) (A) (A) (A) (A) (A) (A) (A) (A)
                 (A) (A) (A) (A)
       Virtual   (A) (A) (A) (A) (A) (A) (A) (A) (A) (A) (A) (A)
                 (A) (A) (A) (A) (A) (A) (A) (A) (A) (A) (A) (A)
                 (A) (A) (A) (A) (A) (A)
 Beta  Orbitals:
       Occupied  (A) (A) (A) (A) (A) (A) (A) (A) (A) (A) (A) (A)
                 (A) (A) (A)
       Virtual   (A) (A) (A) (A) (A) (A) (A) (A) (A) (A) (A) (A)
                 (A) (A) (A) (A) (A) (A) (A) (A) (A) (A) (A) (A)
                 (A) (A) (A) (A) (A) (A) (A)
 The electronic state is 2-A.
 Alpha  occ. eigenvalues --  -19.05007 -10.18130 -10.13998 -10.12618  -1.04172
 Alpha  occ. eigenvalues --   -0.80647  -0.70349  -0.58661  -0.51529  -0.46603
 Alpha  occ. eigenvalues --   -0.44515  -0.37893  -0.36444  -0.33660  -0.21972
 Alpha  occ. eigenvalues --   -0.14323
 Alpha virt. eigenvalues --    0.04228   0.04958   0.10678   0.15320   0.18854
 Alpha virt. eigenvalues --    0.22657   0.24390   0.35866   0.46726   0.64694
 Alpha virt. eigenvalues --    0.70877   0.73303   0.75654   0.76949   0.78292
 Alpha virt. eigenvalues --    0.86196   0.96020   0.98027   0.99267   1.01776
 Alpha virt. eigenvalues --    1.06919   1.11160   1.22265   1.44179   1.48533
 Alpha virt. eigenvalues --    1.57006   1.66607   1.76609   1.96871   3.04371
  Beta  occ. eigenvalues --  -19.04926 -10.18172 -10.13228 -10.11817  -1.03933
  Beta  occ. eigenvalues --   -0.78549  -0.69296  -0.57684  -0.50087  -0.45870
  Beta  occ. eigenvalues --   -0.43744  -0.36476  -0.36137  -0.32689  -0.21311
  Beta virt. eigenvalues --   -0.02670   0.04564   0.06151   0.11310   0.16235
  Beta virt. eigenvalues --    0.19501   0.23394   0.25776   0.36757   0.47549
  Beta virt. eigenvalues --    0.65668   0.71358   0.73819   0.77844   0.78421
  Beta virt. eigenvalues --    0.80432   0.86988   0.96045   0.98935   0.99948
  Beta virt. eigenvalues --    1.02365   1.07348   1.12158   1.22995   1.44607
  Beta virt. eigenvalues --    1.48512   1.58065   1.67198   1.78098   1.97150
  Beta virt. eigenvalues --    3.04566
          Condensed to atoms (all electrons):
               1          2          3          4          5          6
     1  C    5.661571   0.053009   0.359153   0.359153   0.059162  -0.013513
     2  C    0.053009   5.817988  -0.050131  -0.050131   0.124890   0.432615
     3  H    0.359153  -0.050131   0.502861  -0.027702  -0.000116  -0.002558
     4  H    0.359153  -0.050131  -0.027702   0.502861  -0.000117  -0.002558
     5  H    0.059162   0.124890  -0.000116  -0.000117   0.551246   0.000677
     6  C   -0.013513   0.432615  -0.002558  -0.002558   0.000677   4.984507
     7  H    0.000114  -0.067945   0.000125   0.000125   0.000728   0.369668
     8  O    0.002173  -0.058866  -0.000007  -0.000007  -0.002182   0.283069
     9  H   -0.001040   0.011132   0.000018   0.000018   0.001698  -0.047775
               7          8          9
     1  C    0.000114   0.002173  -0.001040
     2  C   -0.067945  -0.058866   0.011132
     3  H    0.000125  -0.000007   0.000018
     4  H    0.000125  -0.000007   0.000018
     5  H    0.000728  -0.002182   0.001698
     6  C    0.369668   0.283069  -0.047775
     7  H    0.528621  -0.048497   0.007146
     8  O   -0.048497   8.145807   0.235857
     9  H    0.007146   0.235857   0.449769
          Atomic-Atomic Spin Densities.
               1          2          3          4          5          6
     1  C    0.940476  -0.350180  -0.022514  -0.022513   0.011033   0.017924
     2  C   -0.350180   0.931318   0.006685   0.006685   0.007197  -0.032188
     3  H   -0.022514   0.006685  -0.002205   0.004050   0.000312  -0.001310
     4  H   -0.022513   0.006685   0.004050  -0.002205   0.000312  -0.001310
     5  H    0.011033   0.007197   0.000312   0.000312  -0.119050  -0.007178
     6  C    0.017924  -0.032188  -0.001310  -0.001310  -0.007178  -0.044253
     7  H    0.000603  -0.009401   0.000162   0.000162   0.000056  -0.018891
     8  O    0.000626  -0.023537  -0.000009  -0.000009   0.000069   0.010173
     9  H   -0.001275   0.018519   0.000021   0.000021   0.000160  -0.001629
               7          8          9
     1  C    0.000603   0.000626  -0.001275
     2  C   -0.009401  -0.023537   0.018519
     3  H    0.000162  -0.000009   0.000021
     4  H    0.000162  -0.000009   0.000021
     5  H    0.000056   0.000069   0.000160
     6  C   -0.018891   0.010173  -0.001629
     7  H    0.083281  -0.009237   0.002116
     8  O   -0.009237   0.057770  -0.019157
     9  H    0.002116  -0.019157   0.021775
 Mulliken charges and spin densities:
               1          2
     1  C   -0.479782   0.574179
     2  C   -0.212560   0.555097
     3  H    0.218358  -0.014809
     4  H    0.218358  -0.014809
     5  H    0.264015  -0.107087
     6  C   -0.004132  -0.078662
     7  H    0.209915   0.048851
     8  O   -0.557348   0.016689
     9  H    0.343176   0.020551
 Sum of Mulliken charges =   0.00000   1.00000
 Mulliken charges and spin densities with hydrogens summed into heavy atoms:
               1          2
     1  C   -0.043066   0.544561
     2  C    0.051455   0.448010
     6  C    0.205784  -0.029811
     8  O   -0.214173   0.037240
 APT charges:
               1
     1  C   -0.134441
     2  C   -0.411990
     3  H    0.021822
     4  H    0.021822
     5  H    0.240108
     6  C    0.665099
     7  H   -0.003326
     8  O   -0.644579
     9  H    0.245486
 Sum of APT charges =   0.00000
 APT charges with hydrogens summed into heavy atoms:
               1
     1  C   -0.090797
     2  C   -0.171882
     6  C    0.661773
     8  O   -0.399094
 Electronic spatial extent (au):  <R**2>=            341.2386
 Charge=              0.0000 electrons
 Dipole moment (field-independent basis, Debye):
    X=              1.1490    Y=             -1.1548    Z=              0.0000  Tot=              1.6290
 Quadrupole moment (field-independent basis, Debye-Ang):
   XX=            -26.3305   YY=            -21.0248   ZZ=            -25.5564
   XY=              1.2874   XZ=              0.0000   YZ=              0.0000
 Traceless Quadrupole moment (field-independent basis, Debye-Ang):
   XX=             -2.0266   YY=              3.2790   ZZ=             -1.2525
   XY=              1.2874   XZ=              0.0000   YZ=              0.0000
 Octapole moment (field-independent basis, Debye-Ang**2):
  XXX=              2.1845  YYY=             -3.5002  ZZZ=              0.0000  XYY=             -9.8458
  XXY=             -2.7911  XXZ=              0.0000  XZZ=             -1.3273  YZZ=             -0.5170
  YYZ=              0.0000  XYZ=              0.0000
 Hexadecapole moment (field-independent basis, Debye-Ang**3):
 XXXX=           -356.8775 YYYY=            -45.3804 ZZZZ=            -30.0915 XXXY=             13.9025
 XXXZ=             -0.0001 YYYX=              5.5928 YYYZ=              0.0000 ZZZX=              0.0000
 ZZZY=              0.0000 XXYY=            -60.9836 XXZZ=            -57.9657 YYZZ=            -14.8475
 XXYZ=              0.0000 YYXZ=              0.0000 ZZXY=              1.8922
 N-N= 1.082120717778D+02 E-N=-6.625899896800D+02  KE= 1.897785145343D+02
  Exact polarizability:  58.934  -2.050  31.188   0.000   0.000  16.051
 Approx polarizability:  95.197  -6.469  43.895   0.000   0.000  19.274
                          Isotropic Fermi Contact Couplings
        Atom                 a.u.       MegaHertz       Gauss      10(-4) cm-1
     1  C(13)              0.12207     137.23107      48.96746      45.77536
     2  C(13)              0.12614     141.80747      50.60043      47.30188
     3  H(1)              -0.00292     -13.04047      -4.65316      -4.34983
     4  H(1)              -0.00292     -13.04100      -4.65335      -4.35001
     5  H(1)              -0.03246    -145.10500     -51.77707     -48.40182
     6  C(13)             -0.00535      -6.00985      -2.14446      -2.00467
     7  H(1)               0.01526      68.21187      24.33969      22.75303
     8  O(17)              0.05336     -32.34920     -11.54300     -10.79053
     9  H(1)               0.00022       0.99489       0.35500       0.33186
 --------------------------------------------------------
       Center         ----  Spin Dipole Couplings  ----
                      3XX-RR        3YY-RR        3ZZ-RR
 --------------------------------------------------------
     1   Atom       -0.253842      0.524142     -0.270301
     2   Atom       -0.264652      0.484611     -0.219959
     3   Atom       -0.013918     -0.005592      0.019510
     4   Atom       -0.013918     -0.005592      0.019510
     5   Atom        0.055842      0.017066     -0.072908
     6   Atom        0.106045     -0.020409     -0.085636
     7   Atom        0.007693      0.000290     -0.007982
     8   Atom        0.138537     -0.040874     -0.097663
     9   Atom        0.010932      0.000405     -0.011336
 --------------------------------------------------------
                        XY            XZ            YZ
 --------------------------------------------------------
     1   Atom        0.076226      0.000000     -0.000003
     2   Atom        0.099901      0.000000      0.000000
     3   Atom        0.009010      0.037861      0.006675
     4   Atom        0.009010     -0.037861     -0.006675
     5   Atom        0.002920      0.000000      0.000000
     6   Atom       -0.010869     -0.000001      0.000000
     7   Atom       -0.005559      0.000000      0.000000
     8   Atom       -0.024987      0.000001      0.000000
     9   Atom        0.007098      0.000000      0.000000
 --------------------------------------------------------


 ---------------------------------------------------------------------------------
              Anisotropic Spin Dipole Couplings in Principal Axis System
 ---------------------------------------------------------------------------------

       Atom             a.u.   MegaHertz   Gauss  10(-4) cm-1        Axes

              Baa    -0.2703   -36.272   -12.943   -12.099  0.0000  0.0000  1.0000
     1 C(13)  Bbb    -0.2612   -35.056   -12.509   -11.693  0.9953 -0.0966  0.0000
              Bcc     0.5315    71.328    25.451    23.792  0.0966  0.9953  0.0000
 
              Baa    -0.2777   -37.271   -13.299   -12.432  0.9915 -0.1299  0.0000
     2 C(13)  Bbb    -0.2200   -29.516   -10.532    -9.846  0.0000  0.0000  1.0000
              Bcc     0.4977    66.787    23.831    22.278  0.1299  0.9915  0.0000
 
              Baa    -0.0391   -20.843    -7.437    -6.952  0.8399 -0.1206 -0.5292
     3 H(1)   Bbb    -0.0073    -3.870    -1.381    -1.291 -0.0070  0.9725 -0.2327
              Bcc     0.0463    24.713     8.818     8.243  0.5427  0.1991  0.8160
 
              Baa    -0.0391   -20.843    -7.437    -6.952  0.8399 -0.1206  0.5292
     4 H(1)   Bbb    -0.0073    -3.870    -1.381    -1.291 -0.0070  0.9725  0.2327
              Bcc     0.0463    24.713     8.818     8.243 -0.5427 -0.1991  0.8160
 
              Baa    -0.0729   -38.900   -13.881   -12.976  0.0000  0.0000  1.0000
     5 H(1)   Bbb     0.0168     8.989     3.207     2.998 -0.0747  0.9972  0.0000
              Bcc     0.0561    29.911    10.673     9.977  0.9972  0.0747  0.0000
 
              Baa    -0.0856   -11.491    -4.100    -3.833  0.0000  0.0000  1.0000
     6 C(13)  Bbb    -0.0213    -2.863    -1.022    -0.955  0.0850  0.9964  0.0000
              Bcc     0.1070    14.355     5.122     4.788  0.9964 -0.0850  0.0000
 
              Baa    -0.0080    -4.259    -1.520    -1.421  0.0000  0.0000  1.0000
     7 H(1)   Bbb    -0.0027    -1.434    -0.512    -0.478  0.4721  0.8815  0.0000
              Bcc     0.0107     5.693     2.031     1.899  0.8815 -0.4721  0.0000
 
              Baa    -0.0977     7.067     2.522     2.357  0.0000  0.0000  1.0000
     8 O(17)  Bbb    -0.0443     3.205     1.144     1.069  0.1354  0.9908  0.0000
              Bcc     0.1420   -10.272    -3.665    -3.426  0.9908 -0.1354  0.0000
 
              Baa    -0.0113    -6.049    -2.158    -2.018  0.0000  0.0000  1.0000
     9 H(1)   Bbb    -0.0032    -1.691    -0.603    -0.564 -0.4496  0.8932  0.0000
              Bcc     0.0145     7.739     2.762     2.581  0.8932  0.4496  0.0000
 

 ---------------------------------------------------------------------------------

 No NMR shielding tensors so no spin-rotation constants.
 Leave Link  601 at Wed Jan  6 20:20:59 2021, MaxMem=    33554432 cpu:         0.1
 (Enter /apps/applications/gaussian/G09.D01/2/default/g09/l701.exe)
 Compute integral second derivatives.
 ... and contract with generalized density number  0.
 Leave Link  701 at Wed Jan  6 20:20:59 2021, MaxMem=    33554432 cpu:         0.1
 (Enter /apps/applications/gaussian/G09.D01/2/default/g09/l702.exe)
 L702 exits ... SP integral derivatives will be done elsewhere.
 Leave Link  702 at Wed Jan  6 20:20:59 2021, MaxMem=    33554432 cpu:         0.0
 (Enter /apps/applications/gaussian/G09.D01/2/default/g09/l703.exe)
 Compute integral second derivatives, UseDBF=F ICtDFT=           0.
 Integral derivatives from FoFJK, PRISM(SPDF).
 Calling FoFJK, ICntrl=    100127 FMM=F ISym2X=0 I1Cent= 0 IOpClX= 1 NMat=1 NMatS=1 NMatT=0.
 FoFJK:  IHMeth= 1 ICntrl=  100127 DoSepK=F KAlg= 0 I1Cent=   0 FoldK=F
 IRaf=         0 NMat=   1 IRICut=       1 DoRegI=T DoRafI=F ISym2E= 0.
 FoFCou: FMM=F IPFlag=           0 FMFlag=      100000 FMFlg1=         800
         NFxFlg=           0 DoJE=F BraDBF=F KetDBF=F FulRan=T
         wScrn=  0.000000 ICntrl=  100127 IOpCl=  1 I1Cent=           0 NGrid=           0
         NMat0=    1 NMatS0=      1 NMatT0=    0 NMatD0=    1 NMtDS0=    0 NMtDT0=    0
 Symmetry not used in FoFCou.
 Leave Link  703 at Wed Jan  6 20:21:08 2021, MaxMem=    33554432 cpu:         8.5
 (Enter /apps/applications/gaussian/G09.D01/2/default/g09/l716.exe)
 Dipole        = 4.52049274D-01-4.54325653D-01 2.46943094D-06
 Polarizability= 5.89337638D+01-2.04969638D+00 3.11880810D+01
                -5.87444991D-06 1.16196782D-06 1.60506449D+01
 ***** Axes restored to original set *****
 -------------------------------------------------------------------
 Center     Atomic                   Forces (Hartrees/Bohr)
 Number     Number              X              Y              Z
 -------------------------------------------------------------------
      1        6          -0.010124804    0.033876694   -0.010319107
      2        6           0.015533836   -0.019585953    0.033412623
      3        1          -0.007620259   -0.000568946    0.000294370
      4        1           0.005872861    0.002014160   -0.004464409
      5        1          -0.005203605   -0.011870787   -0.021197632
      6        6          -0.002538743    0.006194731   -0.003835606
      7        1          -0.001954830    0.002561373   -0.004152419
      8        8           0.007944488   -0.022732682    0.010186432
      9        1          -0.001908945    0.010111411    0.000075748
 -------------------------------------------------------------------
 Cartesian Forces:  Max     0.033876694 RMS     0.013206240
 Force constants in Cartesian coordinates: 
                1             2             3             4             5 
      1  0.580170D+00
      2 -0.741075D-01  0.395669D+00
      3 -0.705288D-01 -0.316072D+00  0.219317D+00
      4 -0.843170D-01  0.107225D+00 -0.842860D-01  0.167295D+00
      5  0.155331D+00 -0.200107D+00  0.350292D+00 -0.262439D+00  0.690839D+00
      6 -0.581739D-01  0.213893D+00 -0.829062D-01  0.162699D+00 -0.401517D+00
      7 -0.341705D+00  0.372799D-01 -0.275670D-01 -0.238204D-02  0.666454D-02
      8  0.315724D-01 -0.411293D-01  0.204623D-01  0.343977D-01 -0.660507D-02
      9 -0.396518D-01  0.107268D-01 -0.362305D-01 -0.952908D-02  0.134303D-01
     10 -0.156598D+00 -0.775017D-01  0.121306D+00  0.699764D-02  0.981173D-02
     11 -0.685080D-01 -0.890463D-01  0.967576D-01 -0.205038D-01 -0.168569D-01
     12  0.135174D+00  0.971757D-01 -0.173420D+00 -0.823247D-02  0.132016D-01
     13  0.152370D-02  0.673644D-02  0.560358D-01 -0.162706D-01 -0.636720D-01
     14 -0.460978D-01 -0.566045D-01 -0.152229D+00 -0.184763D-01  0.918861D-01
     15  0.273573D-01 -0.242448D-02  0.593019D-01  0.500431D-02 -0.118948D+00
     16 -0.477673D-02  0.148633D-02  0.135444D-01 -0.808902D-01  0.121627D+00
     17 -0.514634D-02 -0.877233D-02 -0.143216D-01  0.135902D+00 -0.500174D+00
     18  0.994440D-02  0.448417D-02  0.213604D-01 -0.496347D-01  0.936517D-01
     19 -0.633201D-02 -0.575732D-03 -0.897793D-03  0.161437D-01  0.113866D-01
     20  0.298287D-02 -0.351198D-02  0.987607D-02  0.417756D-03 -0.256833D-01
     21  0.103358D-02 -0.213456D-03 -0.331086D-02 -0.349707D-02  0.886883D-02
     22  0.119912D-01  0.801526D-04 -0.760451D-02 -0.368219D-02  0.220298D-01
     23  0.514373D-02  0.305456D-03  0.677731D-02  0.223652D-01 -0.332202D-01
     24 -0.485592D-02 -0.757996D-02 -0.319415D-02 -0.165232D-01  0.409424D-01
     25  0.434295D-04 -0.622752D-03 -0.194917D-05 -0.289426D-02 -0.740635D-03
     26 -0.117048D-02  0.319665D-02 -0.154282D-02  0.111138D-02 -0.792820D-04
     27 -0.299211D-03  0.100735D-04 -0.917984D-03  0.399920D-02  0.781525D-04
                6             7             8             9            10 
      6  0.303042D+00
      7 -0.464154D-02  0.360633D+00
      8  0.334227D-03 -0.443092D-01  0.409049D-01
      9 -0.116186D-01  0.361804D-01 -0.239080D-01  0.354918D-01
     10 -0.117183D-01 -0.143325D-01 -0.115846D-01  0.233707D-01  0.162548D+00
     11  0.189759D-01  0.256662D-02  0.386644D-02 -0.459037D-03  0.780041D-01
     12 -0.107464D-01 -0.417294D-02 -0.741059D-03  0.830970D-02 -0.133027D+00
     13 -0.195280D-01 -0.159348D-02 -0.902075D-02 -0.804618D-02  0.708258D-03
     14  0.919877D-02  0.782986D-03  0.154956D-02  0.280927D-02  0.911463D-03
     15 -0.719487D-01  0.254125D-03  0.674593D-03  0.165815D-02  0.826763D-04
     16 -0.573827D-01 -0.815364D-04 -0.370589D-03 -0.168714D-02  0.152442D-02
     17  0.134124D+00 -0.405096D-02  0.258676D-02 -0.452024D-02 -0.218620D-03
     18 -0.127268D+00  0.118479D-02  0.962136D-03  0.380905D-02  0.305442D-03
     19  0.245656D-02 -0.731250D-03 -0.339346D-03 -0.172260D-02  0.275553D-03
     20 -0.222316D-01 -0.941914D-04  0.323232D-03  0.490797D-03  0.390159D-03
     21  0.123555D-01  0.327953D-03 -0.165594D-03  0.483388D-03 -0.129153D-03
     22 -0.167051D-01  0.167549D-03 -0.775548D-03  0.730201D-03 -0.115036D-02
     23  0.418935D-01  0.101179D-02 -0.114891D-02  0.175878D-02  0.385354D-03
     24 -0.181993D-01 -0.180882D-02  0.280157D-02 -0.197518D-02 -0.207155D-03
     25  0.299396D-02  0.252095D-04  0.429859D-03  0.355480D-03  0.270864D-04
     26  0.532918D-02  0.148433D-03 -0.347595D-03 -0.328683D-03 -0.197847D-03
     27  0.728961D-02  0.243010D-03 -0.420180D-03  0.721474D-04  0.169956D-04
               11            12            13            14            15 
     11  0.949958D-01
     12 -0.112814D+00  0.179486D+00
     13  0.635219D-02  0.601478D-02  0.137870D-01
     14  0.443285D-02  0.561130D-02  0.584296D-01 -0.396933D-01
     15 -0.462479D-02 -0.352700D-02 -0.309941D-01  0.124635D+00  0.156768D-01
     16 -0.113679D-03  0.523205D-02  0.479887D-03  0.927138D-02 -0.408906D-02
     17  0.331075D-02 -0.443877D-02  0.533793D-02 -0.125320D-01  0.632600D-02
     18  0.811635D-03  0.147906D-02 -0.622424D-02  0.174787D-01 -0.446336D-02
     19 -0.544536D-04  0.154699D-02  0.452382D-02 -0.101353D-02 -0.422756D-03
     20  0.433584D-03  0.101383D-02 -0.184088D-02  0.716904D-02 -0.375925D-02
     21 -0.285599D-03 -0.633770D-03 -0.871723D-03 -0.141381D-02  0.123980D-02
     22  0.271853D-02 -0.244990D-02 -0.318714D-02 -0.416380D-02  0.264830D-02
     23 -0.551641D-03  0.128195D-02 -0.227962D-02  0.467980D-02 -0.125377D-02
     24  0.178684D-02 -0.125460D-02  0.367100D-02 -0.659592D-02  0.191008D-02
     25 -0.461495D-03 -0.858215D-04  0.284714D-04  0.355932D-03  0.159212D-03
     26 -0.584584D-03 -0.290892D-03 -0.429543D-04 -0.887548D-03 -0.625527D-03
     27 -0.148950D-03  0.307271D-03 -0.573155D-04  0.505508D-03  0.152328D-03
               16            17            18            19            20 
     16  0.200612D+00
     17 -0.140199D+00  0.836259D+00
     18  0.140024D+00 -0.111195D-01  0.515372D+00
     19 -0.463158D-01 -0.653280D-02 -0.294574D-02  0.276083D-01
     20 -0.109712D-01 -0.233561D+00 -0.132627D+00  0.492691D-02  0.247383D+00
     21 -0.535487D-02 -0.120043D+00 -0.126868D+00  0.208101D-01  0.136733D+00
     22 -0.677266D-01  0.296638D-01 -0.773756D-01  0.929617D-03  0.243551D-02
     23  0.149988D-01 -0.922264D-01  0.113339D-01 -0.888802D-02  0.645307D-02
     24 -0.853357D-01  0.529147D-01 -0.247994D+00 -0.148787D-01  0.797890D-02
     25 -0.282543D-02 -0.147554D-01 -0.152787D-01  0.389809D-02  0.175310D-02
     26  0.427087D-02  0.510906D-02  0.150246D-01  0.109042D-02  0.994799D-03
     27 -0.495131D-02 -0.389219D-01 -0.354268D-01 -0.394607D-02  0.252609D-02
               21            22            23            24            25 
     21  0.154433D+00
     22 -0.873242D-02  0.745972D-01
     23 -0.241275D-01 -0.268031D-01  0.403083D+00
     24 -0.333801D-01  0.141040D+00  0.132089D+00  0.491321D+00
     25 -0.358639D-02 -0.119392D-01 -0.593417D-02 -0.211018D-01  0.136366D-01
     26  0.647164D-03 -0.251854D-01 -0.287374D+00 -0.224337D+00  0.199756D-01
     27 -0.431883D-02 -0.315513D-01 -0.169753D+00 -0.187233D+00  0.365460D-01
               26            27 
     26  0.279973D+00
     27  0.206124D+00  0.220076D+00
 Leave Link  716 at Wed Jan  6 20:21:08 2021, MaxMem=    33554432 cpu:         0.1
 (Enter /apps/applications/gaussian/G09.D01/2/default/g09/l103.exe)

 GradGradGradGradGradGradGradGradGradGradGradGradGradGradGradGradGradGrad
 Berny optimization.
 Search for a saddle point.
 Step number   1 out of a maximum of  100
 All quantities printed in internal units (Hartrees-Bohrs-Radians)
 Swapping is turned off.
 Second derivative matrix not updated -- analytic derivatives used.
 ITU=  0
     Eigenvalues ---   -0.40300  -0.01101   0.00263   0.00292   0.01485
     Eigenvalues ---    0.03006   0.05282   0.05845   0.08849   0.10024
     Eigenvalues ---    0.10174   0.16152   0.16198   0.21514   0.27196
     Eigenvalues ---    0.50791   0.66165   0.82528   0.88008   0.97393
     Eigenvalues ---    1.69170
 Eigenvectors required to have negative eigenvalues:
                          Y5        Z5        Z1        Y2        Z2
   1                    0.53038  -0.43259   0.42179  -0.36157  -0.27605
                          X5        Y1        X1        Y6        Y9
   1                   -0.25411   0.18552   0.11325  -0.08977   0.07727
 Eigenvalue     2 is  -1.10D-02 should be greater than     0.000000 Eigenvector:
                          Y3        Y4        X2        X7        Z4
   1                    0.48819  -0.44656  -0.41886   0.36909  -0.26787
                          X9        Z3        Z2        Z7        X4
   1                   -0.19651   0.19118   0.14773  -0.13017   0.11725
 RFO step:  Lambda0=9.657502680D-07 Lambda=-1.32296354D-02.
 Linear search not attempted -- option 19 set.
 Maximum step size (   0.300) exceeded in Quadratic search.
    -- Step size scaled by   0.352
 TrRot=  0.010431 -0.000158  0.007221  0.237999 -0.002001 -0.240165
 Variable       Old X    -DE/DX   Delta X   Delta X   Delta X     New X
                                 (Linear)    (Quad)   (Total)
    X1       -1.01021  -0.01012   0.00000  -0.02439  -0.00599  -1.01620
    Y1        2.13663   0.03388   0.00000  -0.00145   0.00144   2.13807
    Z1       -1.70456  -0.01032   0.00000  -0.01550  -0.00927  -1.71383
    X2       -0.10165   0.01553   0.00000   0.12429   0.13553   0.03387
    Y2        0.14756  -0.01959   0.00000   0.05167   0.05155   0.19911
    Z2       -0.20815   0.03341   0.00000   0.01625   0.02361  -0.18453
    X3       -3.01186  -0.00762   0.00000  -0.04296  -0.02365  -3.03551
    Y3        2.41494  -0.00057   0.00000  -0.14891  -0.14149   2.27345
    Z3       -1.97000   0.00029   0.00000  -0.06596  -0.06360  -2.03360
    X4        0.18314   0.00587   0.00000  -0.02187   0.00127   0.18441
    Y4        3.02659   0.00201   0.00000   0.10289   0.10382   3.13041
    Z4       -3.09684  -0.00446   0.00000   0.04626   0.05529  -3.04154
    X5       -0.22344  -0.00520   0.00000  -0.03598  -0.02128  -0.24472
    Y5        2.58268  -0.01187   0.00000   0.01922   0.01929   2.60197
    Z5        0.76835  -0.02120   0.00000  -0.06602  -0.05806   0.71029
    X6        0.55213  -0.00254   0.00000  -0.01235  -0.00739   0.54475
    Y6       -2.16237   0.00619   0.00000   0.01160   0.01008  -2.15228
    Z6        0.39178  -0.00384   0.00000   0.02216   0.02940   0.42118
    X7        0.46032  -0.00195   0.00000  -0.11969  -0.11600   0.34432
    Y7       -3.84773   0.00256   0.00000   0.03309   0.03257  -3.81516
    Z7       -0.78334  -0.00415   0.00000  -0.00048   0.00559  -0.77775
    X8        1.50549   0.00794   0.00000  -0.01799  -0.01919   1.48630
    Y8       -2.86719  -0.02273   0.00000  -0.04966  -0.05432  -2.92151
    Z8        2.71231   0.01019   0.00000   0.01728   0.02600   2.73831
    X9        1.64608  -0.00191   0.00000   0.05694   0.05670   1.70278
    Y9       -1.43111   0.01011   0.00000  -0.01728  -0.02295  -1.45406
    Z9        3.89044   0.00008   0.00000  -0.01880  -0.00897   3.88147
         Item               Value     Threshold  Converged?
 Maximum Force            0.033877     0.000450     NO 
 RMS     Force            0.013206     0.000300     NO 
 Maximum Displacement     0.141490     0.001800     NO 
 RMS     Displacement     0.057009     0.001200     NO 
 Predicted change in Energy=-4.350560D-03
 Lowest energy point so far.  Saving SCF results.
 GradGradGradGradGradGradGradGradGradGradGradGradGradGradGradGradGradGrad

 Leave Link  103 at Wed Jan  6 20:21:08 2021, MaxMem=    33554432 cpu:         0.0
 (Enter /apps/applications/gaussian/G09.D01/2/default/g09/l202.exe)
                          Input orientation:                          
 ---------------------------------------------------------------------
 Center     Atomic      Atomic             Coordinates (Angstroms)
 Number     Number       Type             X           Y           Z
 ---------------------------------------------------------------------
      1          6           0       -0.537748    1.131417   -0.906918
      2          6           0        0.017926    0.105363   -0.097651
      3          1           0       -1.606321    1.203057   -1.076136
      4          1           0        0.097584    1.656540   -1.609515
      5          1           0       -0.129500    1.376903    0.375867
      6          6           0        0.288267   -1.138938    0.222880
      7          1           0        0.182206   -2.018893   -0.411568
      8          8           0        0.786514   -1.545995    1.449053
      9          1           0        0.901072   -0.769453    2.053988
 ---------------------------------------------------------------------
                    Distance matrix (angstroms):
                    1          2          3          4          5
     1  C    0.000000
     2  C    1.420025   0.000000
     3  H    1.084258   2.191014   0.000000
     4  H    1.083071   2.167539   1.842127   0.000000
     5  H    1.368381   1.364832   2.078349   2.017797   0.000000
     6  C    2.667069   1.313054   3.280526   3.347944   2.554876
     7  H    3.269275   2.153601   3.744522   3.866658   3.499806
     8  O    3.804314   2.389562   4.433907   4.481707   3.245635
     9  H    3.801377   2.484915   4.469395   4.466798   2.912904
                    6          7          8          9
     6  C    0.000000
     7  H    1.089997   0.000000
     8  O    1.384719   2.012643   0.000000
     9  H    1.965962   2.856017   0.991003   0.000000
 Stoichiometry    C3H5O(2)
 Framework group  C1[X(C3H5O)]
 Deg. of freedom    21
 Full point group                 C1      NOp   1
 RotChk:  IX=0 Diff= 6.63D-02
 Largest Abelian subgroup         C1      NOp   1
 Largest concise Abelian subgroup C1      NOp   1
                         Standard orientation:                         
 ---------------------------------------------------------------------
 Center     Atomic      Atomic             Coordinates (Angstroms)
 Number     Number       Type             X           Y           Z
 ---------------------------------------------------------------------
      1          6           0        1.956943   -0.051974    0.023625
      2          6           0        0.539135   -0.053887   -0.055677
      3          1           0        2.472570    0.212965    0.939896
      4          1           0        2.539926   -0.005592   -0.887980
      5          1           0        1.241407   -1.217467    0.069471
      6          6           0       -0.653280    0.494381   -0.014945
      7          1           0       -0.887611    1.558885   -0.018817
      8          8           0       -1.844020   -0.211571    0.019920
      9          1           0       -1.670922   -1.187340    0.020049
 ---------------------------------------------------------------------
 Rotational constants (GHZ):     46.5351985      3.9394086      3.7252503
 Leave Link  202 at Wed Jan  6 20:21:08 2021, MaxMem=    33554432 cpu:         0.0
 (Enter /apps/applications/gaussian/G09.D01/2/default/g09/l301.exe)
 Standard basis: 3-21G (6D, 7F)
 Ernie: Thresh=  0.10000D-02 Tol=  0.10000D-05 Strict=F.
 There are    46 symmetry adapted cartesian basis functions of A   symmetry.
 There are    46 symmetry adapted basis functions of A   symmetry.
    46 basis functions,    75 primitive gaussians,    46 cartesian basis functions
    16 alpha electrons       15 beta electrons
       nuclear repulsion energy       107.7988972263 Hartrees.
 IExCor=  402 DFT=T Ex+Corr=B3LYP ExCW=0 ScaHFX=  0.200000
 ScaDFX=  0.800000  0.720000  1.000000  0.810000 ScalE2=  1.000000  1.000000
 IRadAn=      0 IRanWt=     -1 IRanGd=            0 ICorTp=0 IEmpDi=  4
 NAtoms=    9 NActive=    9 NUniq=    9 SFac= 1.00D+00 NAtFMM=   60 NAOKFM=F Big=F
 Integral buffers will be    131072 words long.
 Raffenetti 2 integral format.
 Two-electron integral symmetry is turned on.
 Leave Link  301 at Wed Jan  6 20:21:08 2021, MaxMem=    33554432 cpu:         0.1
 (Enter /apps/applications/gaussian/G09.D01/2/default/g09/l302.exe)
 NPDir=0 NMtPBC=     1 NCelOv=     1 NCel=       1 NClECP=     1 NCelD=      1
         NCelK=      1 NCelE2=     1 NClLst=     1 CellRange=     0.0.
 One-electron integrals computed using PRISM.
 NBasis=    46 RedAO= T EigKep=  4.60D-03  NBF=    46
 NBsUse=    46 1.00D-06 EigRej= -1.00D+00 NBFU=    46
 Precomputing XC quadrature grid using
 IXCGrd= 4 IRadAn=           0 IRanWt=          -1 IRanGd=           0 AccXCQ= 0.00D+00.
 Generated NRdTot=       0 NPtTot=           0 NUsed=           0 NTot=          32
 NSgBfM=    46    46    46    46    46 MxSgAt=     9 MxSgA2=     9.
 Leave Link  302 at Wed Jan  6 20:21:08 2021, MaxMem=    33554432 cpu:         0.2
 (Enter /apps/applications/gaussian/G09.D01/2/default/g09/l303.exe)
 DipDrv:  MaxL=1.
 Leave Link  303 at Wed Jan  6 20:21:08 2021, MaxMem=    33554432 cpu:         0.1
 (Enter /apps/applications/gaussian/G09.D01/2/default/g09/l401.exe)
 Initial guess from the checkpoint file:  "/nobackup/chmrsh/Scratch/Gau-141998.chk"
 B after Tr=     0.000000    0.000000    0.000000
         Rot=    0.999728    0.023314    0.000825    0.000720 Ang=   2.67 deg.
 Guess basis will be translated and rotated to current coordinates.
 JPrj=2 DoOrth=T DoCkMO=T.
 Initial guess <Sx>= 0.0000 <Sy>= 0.0000 <Sz>= 0.5000 <S**2>= 0.7617 S= 0.5059
 Generating alternative initial guess.
 ExpMin= 1.83D-01 ExpMax= 3.22D+02 ExpMxC= 3.22D+02 IAcc=1 IRadAn=         1 AccDes= 0.00D+00
 Harris functional with IExCor=  402 and IRadAn=       1 diagonalized for initial guess.
 HarFok:  IExCor=  402 AccDes= 0.00D+00 IRadAn=         1 IDoV= 1 UseB2=F ITyADJ=14
 ICtDFT=  3500011 ScaDFX=  1.000000  1.000000  1.000000  1.000000
 FoFCou: FMM=F IPFlag=           0 FMFlag=      100000 FMFlg1=           0
         NFxFlg=           0 DoJE=T BraDBF=F KetDBF=T FulRan=T
         wScrn=  0.000000 ICntrl=     500 IOpCl=  0 I1Cent=   200000004 NGrid=           0
         NMat0=    1 NMatS0=      1 NMatT0=    0 NMatD0=    1 NMtDS0=    0 NMtDT0=    0
 Petite list used in FoFCou.
 Harris En= -191.299667662002    
 Leave Link  401 at Wed Jan  6 20:21:09 2021, MaxMem=    33554432 cpu:         0.3
 (Enter /apps/applications/gaussian/G09.D01/2/default/g09/l508.exe)
 Direct SCF.
 Tight linear equation convergence will be used.
 UB3LYP wavefunction.
 Quadratic Convergence SCF Method.
 Line search only if initial step raises energy.
 Integral symmetry usage will be decided dynamically.
 ReadGW:  IGet=1 IStart=         402 Next=         402 LGW=           0.
 Keep R1 and R2 ints in memory in canonical form, NReq=2054798.
 FoFCou: FMM=F IPFlag=           0 FMFlag=           0 FMFlg1=           0
         NFxFlg=           0 DoJE=F BraDBF=F KetDBF=F FulRan=T
         wScrn=  0.000000 ICntrl=     600 IOpCl=  0 I1Cent=           0 NGrid=           0
         NMat0=    1 NMatS0=   1081 NMatT0=    0 NMatD0=    1 NMtDS0=    0 NMtDT0=    0
 Symmetry not used in FoFCou.
 Iteration   1 EE= -191.291736648551                                    Grad=7.615D-02 Max rot=    0.6533 deg.
 Gradient too large for Newton-Raphson -- use scaled steepest descent instead.
 Alpha Gap=     0.406 HL deriv= 4.96D-03
  Beta Gap=     0.551 HL deriv= 1.32D-02
     ILin= 1 X=0.000D+00 Y=-1.912917366486D+02 DE= 0.00D+00 F= -7.27D-03
     ILin= 2 X=3.000D-01 Y=-1.912936096982D+02 DE=-1.87D-03 F= -5.22D-03
     ILin= 3 X=6.000D-01 Y=-1.912948696377D+02 DE=-3.13D-03 F= -3.18D-03
     ILin= 4 X=1.200D+00 Y=-1.912955495774D+02 DE=-3.81D-03 F=  9.11D-04
     Accept linear search using points  3 and  4.
     An  expanding polynomial of degree  4 produced  0.9756
 Iteration   2 EE= -191.295582469941     Delta-E=       -0.003845821390 Grad=2.739D-02 Max rot=    0.2472 deg.
 Gradient too large for Newton-Raphson -- use scaled steepest descent instead.
 Alpha Gap=     0.407 HL deriv= 2.40D-03
  Beta Gap=     0.552 HL deriv= 1.38D-03
     ILin= 1 X=0.000D+00 Y=-1.912955824699D+02 DE= 0.00D+00 F= -1.17D-03
     ILin= 2 X=5.000D-01 Y=-1.912960259460D+02 DE=-4.43D-04 F= -6.02D-04
     ILin= 3 X=1.100D+00 Y=-1.912961819810D+02 DE=-6.00D-04 F=  8.19D-05
     Accept linear search using points  2 and  3.
     An  expanding polynomial of degree  3 produced  0.9212
 Iteration   3 EE= -191.296178407994     Delta-E=       -0.000595938052 Grad=1.983D-02 Max rot=    0.2157 deg.
 Gradient too large for Newton-Raphson -- use scaled steepest descent instead.
 Alpha Gap=     0.407 HL deriv= 7.43D-04
  Beta Gap=     0.550 HL deriv= 2.08D-03
     ILin= 1 X=0.000D+00 Y=-1.912961784080D+02 DE= 0.00D+00 F= -6.79D-04
     ILin= 2 X=9.000D-01 Y=-1.912963433857D+02 DE=-1.65D-04 F=  3.12D-04
     Accept linear search using points  1 and  2.
     An  expanding polynomial of degree  2 produced  0.5941
 Iteration   4 EE= -191.296387361681     Delta-E=       -0.000208953687 Grad=1.428D-02 Max rot=    0.1621 deg.
 Gradient too large for Newton-Raphson -- use scaled steepest descent instead.
 Alpha Gap=     0.407 HL deriv= 3.85D-04
  Beta Gap=     0.552 HL deriv= 6.46D-04
     ILin= 1 X=0.000D+00 Y=-1.912963873617D+02 DE= 0.00D+00 F= -3.42D-04
     ILin= 2 X=7.000D-01 Y=-1.912965122530D+02 DE=-1.25D-04 F= -1.52D-05
     Reject lnstep minimum 1.263D+00 FVal=-1.912965176141D+02 Lims=  0.00D+00  7.00D-01
     ILin= 3 X=1.500D+00 Y=-1.912963750365D+02 DE= 1.23D-05 F=  3.58D-04
     An  expanding polynomial of degree  3 produced  0.7324
     Minimum is close to point  2 DX=  3.24D-02 DF= -2.45D-07 DXR=  4.42D-02 DFR=  1.96D-03 which will be used.
 Iteration   5 EE= -191.296512252967     Delta-E=       -0.000124891286 Grad=1.229D-02 Max rot=    0.1521 deg.
 Gradient too large for Newton-Raphson -- use scaled steepest descent instead.
 Alpha Gap=     0.407 HL deriv= 8.59D-05
  Beta Gap=     0.551 HL deriv= 4.17D-04
     ILin= 1 X=0.000D+00 Y=-1.912965122530D+02 DE= 0.00D+00 F= -2.63D-04
     ILin= 2 X=7.000D-01 Y=-1.912965939218D+02 DE=-8.17D-05 F=  2.99D-05
     Accept linear search using points  1 and  2.
     An  expanding polynomial of degree  2 produced  0.5503
 Iteration   6 EE= -191.296593706082     Delta-E=       -0.000081453115 Grad=8.770D-03 Max rot=    0.1314 deg.
 QCNR:  CnvC1=3.07D-09 CnvC2=3.07D-08
 LinEq1:  Iter=  0 NonCon=     1 RMS=9.42D-04 Max=2.59D-02 NDo=     1
 AX will form     1 AO Fock derivatives at one time.
 LinEq1:  Iter=  1 NonCon=     1 RMS=3.31D-04 Max=4.39D-03 NDo=     1
 LinEq1:  Iter=  2 NonCon=     1 RMS=1.91D-04 Max=2.16D-03 NDo=     1
 LinEq1:  Iter=  3 NonCon=     1 RMS=1.51D-04 Max=1.87D-03 NDo=     1
 LinEq1:  Iter=  4 NonCon=     1 RMS=6.05D-05 Max=6.33D-04 NDo=     1
 LinEq1:  Iter=  5 NonCon=     1 RMS=3.89D-05 Max=4.91D-04 NDo=     1
 LinEq1:  Iter=  6 NonCon=     1 RMS=1.90D-05 Max=2.36D-04 NDo=     1
 LinEq1:  Iter=  7 NonCon=     1 RMS=1.26D-05 Max=1.38D-04 NDo=     1
 LinEq1:  Iter=  8 NonCon=     1 RMS=6.28D-06 Max=9.39D-05 NDo=     1
 LinEq1:  Iter=  9 NonCon=     1 RMS=1.29D-06 Max=9.25D-06 NDo=     1
 LinEq1:  Iter= 10 NonCon=     1 RMS=3.28D-07 Max=2.27D-06 NDo=     1
 LinEq1:  Iter= 11 NonCon=     1 RMS=7.54D-08 Max=6.21D-07 NDo=     1
 LinEq1:  Iter= 12 NonCon=     1 RMS=2.27D-08 Max=2.28D-07 NDo=     1
 LinEq1:  Iter= 13 NonCon=     1 RMS=4.43D-09 Max=5.02D-08 NDo=     1
 LinEq1:  Iter= 14 NonCon=     0 RMS=8.35D-10 Max=5.39D-09 NDo=     1
 Linear equations converged to 3.074D-09 3.074D-08 after    14 iterations.
 Angle between quadratic step and gradient=  44.12 degrees.
     ILin= 1 X=0.000D+00 Y=-1.912965937061D+02 DE= 0.00D+00 F= -5.17D-04
     ILin= 2 X=1.000D+00 Y=-1.912968515408D+02 DE=-2.58D-04 F=  1.32D-06
     Accept linear search using points  1 and  2.
     An  expanding polynomial of degree  2 produced  0.9975
     Minimum is close to point  2 DX= -2.54D-03 DF= -1.67D-09 DXR=  2.54D-03 DFR=  6.48D-06 which will be used.
 Iteration   7 EE= -191.296851540757     Delta-E=       -0.000257834675 Grad=2.880D-04 Max rot=    0.0044 deg.
 QCNR:  CnvC1=2.88D-09 CnvC2=2.88D-08
 LinEq1:  Iter=  0 NonCon=     1 RMS=1.85D-05 Max=2.96D-04 NDo=     1
 LinEq1:  Iter=  1 NonCon=     1 RMS=1.14D-05 Max=1.82D-04 NDo=     1
 LinEq1:  Iter=  2 NonCon=     1 RMS=8.98D-06 Max=1.27D-04 NDo=     1
 LinEq1:  Iter=  3 NonCon=     1 RMS=4.82D-06 Max=5.88D-05 NDo=     1
 LinEq1:  Iter=  4 NonCon=     1 RMS=2.32D-06 Max=2.48D-05 NDo=     1
 LinEq1:  Iter=  5 NonCon=     1 RMS=1.36D-06 Max=1.24D-05 NDo=     1
 LinEq1:  Iter=  6 NonCon=     1 RMS=8.41D-07 Max=8.34D-06 NDo=     1
 LinEq1:  Iter=  7 NonCon=     1 RMS=3.22D-07 Max=2.42D-06 NDo=     1
 LinEq1:  Iter=  8 NonCon=     1 RMS=1.45D-07 Max=1.25D-06 NDo=     1
 LinEq1:  Iter=  9 NonCon=     1 RMS=3.96D-08 Max=4.77D-07 NDo=     1
 LinEq1:  Iter= 10 NonCon=     1 RMS=9.17D-09 Max=8.69D-08 NDo=     1
 LinEq1:  Iter= 11 NonCon=     0 RMS=1.96D-09 Max=2.28D-08 NDo=     1
 Linear equations converged to 2.880D-09 2.880D-08 after    11 iterations.
 Angle between quadratic step and gradient=  50.83 degrees.
     ILin= 1 X=0.000D+00 Y=-1.912968515408D+02 DE= 0.00D+00 F= -1.22D-07
     ILin= 2 X=1.000D+00 Y=-1.912968516016D+02 DE=-6.08D-08 F= -2.23D-12
     Reject lnstep minimum 1.000D+00 FVal=-1.912968516016D+02 Lims=  0.00D+00  1.00D+00
     ILin= 3 X=2.000D+00 Y=-1.912968515408D+02 DE=-6.08D-12 F=  1.22D-07
     An  expanding polynomial of degree  3 produced  1.0000
     Minimum is close to point  2 DX=  2.50D-05 DF=  0.00D+00 DXR=  2.50D-05 DFR=  0.00D+00 which will be used.
 Iteration   8 EE= -191.296851601598     Delta-E=       -0.000000060841 Grad=2.418D-08 Max rot=    0.0000 deg.
 Rotation gradient small -- convergence achieved.
 SCF Done:  E(UB3LYP) =  -191.296851602     a.u. after    8 cycles
            Convg  =    0.2418D-07                    42 Fock formations.
              S**2 =  0.7610                  -V/T =  2.0083
 <Sx>= 0.0000 <Sy>= 0.0000 <Sz>= 0.5000 <S**2>= 0.7610 S= 0.5055
 <L.S>= 0.000000000000E+00
 Annihilation of the first spin contaminant:
 S**2 before annihilation     0.7610,   after     0.7501
 Leave Link  508 at Wed Jan  6 20:21:37 2021, MaxMem=    33554432 cpu:        28.2
 (Enter /apps/applications/gaussian/G09.D01/2/default/g09/l801.exe)
 DoSCS=F DFT=T ScalE2(SS,OS)=  1.000000  1.000000
 Range of M.O.s used for correlation:     1    46
 NBasis=    46 NAE=    16 NBE=    15 NFC=     0 NFV=     0
 NROrb=     46 NOA=    16 NOB=    15 NVA=    30 NVB=    31
 Leave Link  801 at Wed Jan  6 20:21:37 2021, MaxMem=    33554432 cpu:         0.0
 (Enter /apps/applications/gaussian/G09.D01/2/default/g09/l1101.exe)
 Using compressed storage, NAtomX=     9.
 Will process     10 centers per pass.
 Leave Link 1101 at Wed Jan  6 20:21:37 2021, MaxMem=    33554432 cpu:         0.1
 (Enter /apps/applications/gaussian/G09.D01/2/default/g09/l1102.exe)
 Symmetrizing basis deriv contribution to polar:
 IMax=3 JMax=2 DiffMx= 0.00D+00
 Leave Link 1102 at Wed Jan  6 20:21:37 2021, MaxMem=    33554432 cpu:         0.1
 (Enter /apps/applications/gaussian/G09.D01/2/default/g09/l1110.exe)
 Forming Gx(P) for the SCF density, NAtomX=     9.
 Integral derivatives from FoFJK, PRISM(SPDF).
 Do as many integral derivatives as possible in FoFJK.
 G2DrvN: MDV=      33554256.
 G2DrvN: will do    10 centers at a time, making    1 passes.
 Calling FoFCou, ICntrl=  3107 FMM=F I1Cent=   0 AccDes= 0.00D+00.
 FoFJK:  IHMeth= 1 ICntrl=    3107 DoSepK=F KAlg= 0 I1Cent=   0 FoldK=F
 IRaf=         0 NMat=   1 IRICut=       1 DoRegI=T DoRafI=F ISym2E= 0.
 FoFCou: FMM=F IPFlag=           0 FMFlag=      100000 FMFlg1=           0
         NFxFlg=           0 DoJE=F BraDBF=F KetDBF=F FulRan=T
         wScrn=  0.000000 ICntrl=    3107 IOpCl=  1 I1Cent=           0 NGrid=           0
         NMat0=    1 NMatS0=      1 NMatT0=    0 NMatD0=    1 NMtDS0=    0 NMtDT0=    0
 Symmetry not used in FoFCou.
 End of G2Drv F.D. properties file   721 does not exist.
 End of G2Drv F.D. properties file   722 does not exist.
 End of G2Drv F.D. properties file   788 does not exist.
 Leave Link 1110 at Wed Jan  6 20:21:47 2021, MaxMem=    33554432 cpu:        10.0
 (Enter /apps/applications/gaussian/G09.D01/2/default/g09/l1002.exe)
 Minotr:  UHF open shell wavefunction.
          IDoAtm=111111111
          Direct CPHF calculation.
          Differentiating once with respect to electric field.
                with respect to dipole field.
          Differentiating once with respect to nuclear coordinates.
          Requested convergence is 1.0D-08 RMS, and 1.0D-07 maximum.
          Secondary convergence is 1.0D-12 RMS, and 1.0D-12 maximum.
          NewPWx=T KeepS1=F KeepF1=F KeepIn=T MapXYZ=F SortEE=F KeepMc=T.
          MDV=      33554246 using IRadAn=       2.
 Generate precomputed XC quadrature information.
 Keep R1 and R2 ints in memory in canonical form, NReq=2035813.
 FoFCou: FMM=F IPFlag=           0 FMFlag=           0 FMFlg1=           0
         NFxFlg=           0 DoJE=F BraDBF=F KetDBF=F FulRan=T
         wScrn=  0.000000 ICntrl=     600 IOpCl=  0 I1Cent=           0 NGrid=           0
         NMat0=    1 NMatS0=   1081 NMatT0=    0 NMatD0=    1 NMtDS0=    0 NMtDT0=    0
 Symmetry not used in FoFCou.
          Solving linear equations simultaneously, MaxMat=       0.
          There are    30 degrees of freedom in the 1st order CPHF.  IDoFFX=6 NUNeed=     3.
     27 vectors produced by pass  0 Test12= 3.15D-15 3.33D-09 XBig12= 1.52D+02 6.43D+00.
 AX will form    27 AO Fock derivatives at one time.
     27 vectors produced by pass  1 Test12= 3.15D-15 3.33D-09 XBig12= 1.94D+01 8.67D-01.
     27 vectors produced by pass  2 Test12= 3.15D-15 3.33D-09 XBig12= 2.02D-01 8.57D-02.
     27 vectors produced by pass  3 Test12= 3.15D-15 3.33D-09 XBig12= 1.22D-03 1.04D-02.
     27 vectors produced by pass  4 Test12= 3.15D-15 3.33D-09 XBig12= 2.66D-06 2.53D-04.
     27 vectors produced by pass  5 Test12= 3.15D-15 3.33D-09 XBig12= 4.44D-09 1.05D-05.
      7 vectors produced by pass  6 Test12= 3.15D-15 3.33D-09 XBig12= 6.76D-12 3.93D-07.
      2 vectors produced by pass  7 Test12= 3.15D-15 3.33D-09 XBig12= 1.26D-14 1.57D-08.
 InvSVY:  IOpt=1 It=  1 EMax= 7.11D-15
 Solved reduced A of dimension   171 with    30 vectors.
 FullF1:  Do perturbations    1 to     3.
 Isotropic polarizability for W=    0.000000       35.33 Bohr**3.
 End of Minotr F.D. properties file   721 does not exist.
 End of Minotr F.D. properties file   722 does not exist.
 End of Minotr F.D. properties file   788 does not exist.
 Leave Link 1002 at Wed Jan  6 20:21:57 2021, MaxMem=    33554432 cpu:         9.2
 (Enter /apps/applications/gaussian/G09.D01/2/default/g09/l701.exe)
 Compute integral second derivatives.
 ... and contract with generalized density number  0.
 Leave Link  701 at Wed Jan  6 20:21:57 2021, MaxMem=    33554432 cpu:         0.1
 (Enter /apps/applications/gaussian/G09.D01/2/default/g09/l702.exe)
 L702 exits ... SP integral derivatives will be done elsewhere.
 Leave Link  702 at Wed Jan  6 20:21:57 2021, MaxMem=    33554432 cpu:         0.0
 (Enter /apps/applications/gaussian/G09.D01/2/default/g09/l703.exe)
 Compute integral second derivatives, UseDBF=F ICtDFT=           0.
 Integral derivatives from FoFJK, PRISM(SPDF).
 Calling FoFJK, ICntrl=    100127 FMM=F ISym2X=0 I1Cent= 0 IOpClX= 1 NMat=1 NMatS=1 NMatT=0.
 FoFJK:  IHMeth= 1 ICntrl=  100127 DoSepK=F KAlg= 0 I1Cent=   0 FoldK=F
 IRaf=         0 NMat=   1 IRICut=       1 DoRegI=T DoRafI=F ISym2E= 0.
 FoFCou: FMM=F IPFlag=           0 FMFlag=      100000 FMFlg1=         800
         NFxFlg=           0 DoJE=F BraDBF=F KetDBF=F FulRan=T
         wScrn=  0.000000 ICntrl=  100127 IOpCl=  1 I1Cent=           0 NGrid=           0
         NMat0=    1 NMatS0=      1 NMatT0=    0 NMatD0=    1 NMtDS0=    0 NMtDT0=    0
 Symmetry not used in FoFCou.
 Leave Link  703 at Wed Jan  6 20:22:05 2021, MaxMem=    33554432 cpu:         8.5
 (Enter /apps/applications/gaussian/G09.D01/2/default/g09/l716.exe)
 Dipole        = 4.73882765D-01-4.33057900D-01 5.53199857D-02
 Polarizability= 5.89029027D+01-1.82054412D+00 3.08270641D+01
                -2.51782414D-01 2.39509649D-01 1.62560201D+01
 ***** Axes restored to original set *****
 -------------------------------------------------------------------
 Center     Atomic                   Forces (Hartrees/Bohr)
 Number     Number              X              Y              Z
 -------------------------------------------------------------------
      1        6          -0.006012060    0.021680379   -0.005935458
      2        6           0.010568037   -0.014166841    0.020839783
      3        1          -0.003097849   -0.001714512    0.000077266
      4        1           0.002447051    0.001598350   -0.001955678
      5        1          -0.004452916   -0.006573786   -0.014818675
      6        6          -0.001960529    0.004921161   -0.002780150
      7        1          -0.002338578    0.003224775   -0.002247262
      8        8           0.005526103   -0.014457450    0.007348651
      9        1          -0.000679258    0.005487925   -0.000528477
 -------------------------------------------------------------------
 Cartesian Forces:  Max     0.021680379 RMS     0.008556488
 Force constants in Cartesian coordinates: 
                1             2             3             4             5 
      1  0.582275D+00
      2 -0.367816D-01  0.366290D+00
      3 -0.459863D-01 -0.287560D+00  0.219551D+00
      4 -0.102013D+00  0.976661D-01 -0.966698D-01  0.161322D+00
      5  0.152438D+00 -0.160356D+00  0.309393D+00 -0.219506D+00  0.676516D+00
      6 -0.652178D-01  0.181884D+00 -0.781018D-01  0.159977D+00 -0.355119D+00
      7 -0.332442D+00  0.136881D-01 -0.354282D-01 -0.444955D-02  0.610852D-02
      8  0.997296D-02 -0.409733D-01  0.177048D-01  0.309761D-01 -0.175338D-02
      9 -0.457157D-01  0.560215D-02 -0.399053D-01 -0.114018D-01  0.156609D-01
     10 -0.156096D+00 -0.856438D-01  0.110612D+00  0.866456D-02  0.100526D-01
     11 -0.775587D-01 -0.983857D-01  0.100650D+00 -0.180069D-01 -0.215244D-01
     12  0.122271D+00  0.102034D+00 -0.156649D+00 -0.678489D-02  0.866687D-02
     13  0.552911D-02  0.106003D-01  0.634009D-01 -0.631233D-02 -0.715554D-01
     14 -0.457504D-01 -0.561096D-01 -0.143967D+00 -0.244099D-01  0.702905D-01
     15  0.254804D-01 -0.283557D-02  0.433620D-01  0.142247D-01 -0.116467D+00
     16 -0.345420D-02  0.219344D-02  0.977063D-02 -0.693743D-01  0.965546D-01
     17 -0.840310D-02 -0.113616D-01 -0.826834D-02  0.113048D+00 -0.504912D+00
     18  0.126816D-01  0.824430D-02  0.160296D-01 -0.454292D-01  0.908888D-01
     19 -0.448800D-02 -0.350108D-02  0.260044D-02  0.151393D-01  0.870116D-02
     20  0.373508D-02 -0.276573D-02  0.875147D-02 -0.260121D-02 -0.260478D-01
     21  0.659017D-03  0.388855D-03 -0.347460D-02 -0.278751D-02  0.874258D-02
     22  0.110749D-01  0.161329D-02 -0.781670D-02 -0.399640D-03  0.180749D-01
     23  0.385292D-02  0.101593D-02  0.520656D-02  0.213797D-01 -0.328305D-01
     24 -0.421566D-02 -0.731547D-02 -0.393708D-03 -0.149248D-01  0.381406D-01
     25 -0.385674D-03  0.165272D-03 -0.482726D-03 -0.257709D-02 -0.868761D-03
     26 -0.150553D-02  0.264533D-02 -0.191043D-02  0.145428D-02  0.618116D-03
     27  0.429264D-04 -0.442842D-03 -0.417947D-03  0.379618D-02  0.934724D-04
                6             7             8             9            10 
      6  0.293739D+00
      7 -0.477185D-02  0.350933D+00
      8 -0.507083D-03 -0.190598D-01  0.378754D-01
      9 -0.137667D-01  0.445151D-01 -0.201751D-01  0.382446D-01
     10 -0.117305D-01 -0.131542D-01 -0.127746D-01  0.214364D-01  0.160497D+00
     11  0.185010D-01  0.149962D-02  0.270137D-02  0.715813D-03  0.866055D-01
     12 -0.854284D-02 -0.495865D-02 -0.208282D-02  0.854515D-02 -0.119977D+00
     13 -0.176383D-01 -0.521035D-03 -0.862512D-02 -0.715021D-02  0.298952D-04
     14  0.170645D-02  0.377506D-03  0.352662D-03  0.123746D-02  0.876387D-03
     15 -0.682920D-01  0.620100D-03  0.191750D-02  0.359189D-02  0.531529D-04
     16 -0.510957D-01  0.205098D-03 -0.991287D-04 -0.124342D-02  0.101300D-02
     17  0.126833D+00 -0.377724D-02  0.297281D-02 -0.516766D-02  0.364512D-03
     18 -0.124524D+00  0.118546D-02  0.625120D-03  0.411307D-02  0.480125D-04
     19 -0.121699D-02 -0.865789D-03  0.299763D-03 -0.116883D-02  0.278542D-03
     20 -0.219939D-01  0.373890D-04  0.490065D-03  0.100273D-02  0.221831D-03
     21  0.123608D-01  0.336653D-03 -0.389743D-03  0.275540D-03 -0.897559D-04
     22 -0.116786D-01  0.244371D-03 -0.989090D-03  0.475767D-03 -0.127803D-02
     23  0.434305D-01  0.987026D-03 -0.122327D-02  0.162851D-02  0.411055D-03
     24 -0.195076D-01 -0.174651D-02  0.327408D-02 -0.123636D-02 -0.403318D-03
     25  0.337258D-02  0.504040D-04  0.298881D-03  0.252691D-03  0.450315D-04
     26  0.526492D-02  0.138896D-03 -0.442353D-03 -0.504803D-03 -0.113406D-03
     27  0.663506D-02  0.247842D-03 -0.366694D-03  0.138152D-03  0.511419D-04
               11            12            13            14            15 
     11  0.108414D+00
     12 -0.115038D+00  0.163883D+00
     13  0.529931D-02  0.569707D-02  0.189381D-03
     14  0.642285D-02  0.822750D-02  0.645982D-01 -0.208624D-01
     15 -0.692033D-02 -0.646249D-02 -0.390238D-01  0.123790D+00  0.281157D-01
     16  0.126435D-03  0.480967D-02 -0.109915D-04  0.739094D-02 -0.226816D-02
     17  0.343646D-02 -0.331248D-02  0.394575D-02 -0.900779D-02  0.495965D-02
     18  0.141214D-02  0.106036D-02 -0.804401D-02  0.146132D-01 -0.238028D-02
     19 -0.258057D-04  0.121303D-02  0.381602D-02  0.140436D-02 -0.123844D-02
     20  0.147925D-03  0.454364D-03 -0.255354D-02  0.631081D-02 -0.305072D-02
     21 -0.239182D-03 -0.426478D-03 -0.586052D-03 -0.152442D-02  0.111101D-02
     22  0.258788D-02 -0.220945D-02 -0.279905D-02 -0.466786D-02  0.194547D-02
     23 -0.775214D-03  0.119835D-02 -0.200048D-02  0.375495D-02 -0.107946D-02
     24  0.101000D-02 -0.169466D-02  0.350782D-02 -0.467102D-02  0.939898D-03
     25 -0.527317D-03 -0.613218D-04  0.789987D-04  0.180827D-03  0.206500D-03
     26 -0.437826D-03 -0.147736D-03  0.290925D-03 -0.115199D-02 -0.314366D-03
     27 -0.914247D-04  0.286877D-03 -0.163440D-03  0.587927D-03  0.142673D-04
               16            17            18            19            20 
     16  0.190601D+00
     17 -0.102189D+00  0.837352D+00
     18  0.142793D+00 -0.121085D-01  0.510684D+00
     19 -0.480857D-01 -0.171298D-01 -0.125439D-01  0.301147D-01
     20 -0.212674D-01 -0.227602D+00 -0.131969D+00  0.183835D-01  0.241585D+00
     21 -0.139389D-01 -0.119781D+00 -0.129826D+00  0.296640D-01  0.134820D+00
     22 -0.678918D-01  0.285700D-01 -0.752517D-01  0.289427D-03  0.252779D-02
     23  0.124519D-01 -0.967359D-01  0.131865D-01 -0.873637D-02  0.708933D-02
     24 -0.802312D-01  0.559807D-01 -0.237942D+00 -0.133370D-01  0.914730D-02
     25 -0.300182D-02 -0.144288D-01 -0.154388D-01  0.380159D-02  0.151658D-02
     26  0.483842D-02  0.585829D-02  0.151077D-01  0.604317D-03  0.792635D-03
     27 -0.859533D-02 -0.391356D-01 -0.372147D-01 -0.397231D-02  0.283780D-02
               21            22            23            24            25 
     21  0.155808D+00
     22 -0.968558D-02  0.779239D-01
     23 -0.232404D-01 -0.883531D-02  0.406919D+00
     24 -0.316901D-01  0.141614D+00  0.116545D+00  0.463207D+00
     25 -0.357178D-02 -0.171641D-01 -0.195105D-01 -0.302636D-01  0.191526D-01
     26  0.122287D-02 -0.388816D-01 -0.287214D+00 -0.212111D+00  0.331737D-01
     27 -0.413874D-02 -0.373935D-01 -0.156876D+00 -0.171683D+00  0.459865D-01
[...]
 
                     E (Thermal)             CV                S
                      KCal/Mol        Cal/Mol-Kelvin    Cal/Mol-Kelvin
 Total                   44.181             16.176             70.120
 Electronic               0.000              0.000              1.377
 Translational            0.889              2.981             38.044
 Rotational               0.889              2.981             23.651
 Vibrational             42.404             10.214              7.047
 Vibration     1          0.628              1.870              2.355
 Vibration     2          0.665              1.757              1.707
 Vibration     3          0.720              1.594              1.208
 Vibration     4          0.889              1.176              0.579
 Vibration     5          0.909              1.132              0.537
                       Q            Log10(Q)             Ln(Q)
 Total Bot       0.319773D-17        -17.495158        -40.284091
 Total V=0       0.419128D+13         12.622346         29.064026
 Vib (Bot)       0.286899D-29        -29.542270        -68.023591
 Vib (Bot)    1  0.113286D+01          0.054176          0.124745
 Vib (Bot)    2  0.769146D+00         -0.113991         -0.262475
 Vib (Bot)    3  0.544549D+00         -0.263963         -0.607798
 Vib (Bot)    4  0.298662D+00         -0.524820         -1.208442
 Vib (Bot)    5  0.282506D+00         -0.548972         -1.264054
 Vib (V=0)       0.376040D+01          0.575234          1.324526
 Vib (V=0)    1  0.173829D+01          0.240123          0.552904
 Vib (V=0)    2  0.141738D+01          0.151486          0.348810
 Vib (V=0)    3  0.123928D+01          0.093169          0.214530
 Vib (V=0)    4  0.108241D+01          0.034391          0.079188
 Vib (V=0)    5  0.107429D+01          0.031122          0.071661
 Electronic      0.200000D+01          0.301030          0.693147
 Translational   0.169300D+08          7.228656         16.644596
 Rotational      0.329174D+05          4.517425         10.401757
 
                                                    Gaussian input prepared by AS
 E
                                                             IR Spectrum
 
     3         3 3 3                                      2           1       1  1   1    1 11                                       
     4         2 1 0                                      0           6       4  3   2    1 10   9  88          55      3  2  1      
     6         1 5 9                                      3           9       9  9   9    4 06   7  96          53      4  5  7      
     1         4 2 9                                      1           7       8  1   4    9 34   5  02          44      1  3  7      
 
     X         X X X                                      X           X       X  X   X    X XX   X  XX          XX      X  X  X      
               X X X                                      X           X          X        X X    X  XX          XX                   
                   X                                                  X          X        X X    X  XX          XX                   
                                                                      X          X        X X    X  XX          XX                   
                                                                      X          X        X X    X  X            X                   
                                                                      X          X        X X    X  X            X                   
                                                                      X                   X X    X  X            X                   
                                                                      X                   X X    X  X            X                   
                                                                                          X X    X  X            X                   
                                                                                          X      X  X            X                   
                                                                                          X      X  X            X                   
                                                                                          X      X  X            X                   
                                                                                          X      X  X            X                   
                                                                                          X      X  X            X                   
                                                                                          X      X  X            X                   
                                                                                          X         X            X                   
                                                                                          X         X            X                   
                                                                                          X                                          
                                                                                          X                                          
                                                                                          X                                          
 
 ***** Axes restored to original set *****
 -------------------------------------------------------------------
 Center     Atomic                   Forces (Hartrees/Bohr)
 Number     Number              X              Y              Z
 -------------------------------------------------------------------
      1        6          -0.000002045   -0.000000203    0.000000415
      2        6          -0.000000053   -0.000000739   -0.000001369
      3        1          -0.000000950    0.000000755    0.000002558
      4        1          -0.000001553   -0.000001193   -0.000001028
      5        1           0.000002036    0.000000327   -0.000000513
      6        6          -0.000001499   -0.000000038    0.000000711
      7        1          -0.000002650   -0.000000064    0.000001537
      8        8           0.000003782    0.000001603   -0.000000251
      9        1           0.000002933   -0.000000448   -0.000002061
 -------------------------------------------------------------------
 Cartesian Forces:  Max     0.000003782 RMS     0.000001568
 Force constants in Cartesian coordinates: 
                1             2             3             4             5 
      1  0.546426D+00
      2  0.818184D-01  0.387774D+00
      3  0.506112D-01 -0.234575D+00  0.221526D+00
      4 -0.142604D+00  0.559615D-01 -0.139157D+00  0.137453D+00
      5  0.127243D+00 -0.723103D-01  0.226145D+00 -0.773220D-01  0.587686D+00
      6 -0.804217D-01  0.110079D+00 -0.628016D-01  0.139765D+00 -0.267418D+00
      7 -0.295694D+00 -0.601091D-01 -0.643591D-01 -0.940593D-02 -0.572616D-03
      8 -0.613219D-01 -0.621761D-01 -0.214700D-02  0.206035D-01  0.105848D-01
      9 -0.705209D-01 -0.185394D-01 -0.581142D-01 -0.192823D-01  0.233364D-01
     10 -0.125560D+00 -0.112295D+00  0.653927D-01  0.101053D-01  0.203330D-01
     11 -0.104932D+00 -0.171851D+00  0.114864D+00 -0.536615D-02 -0.306067D-01
     12  0.721390D-01  0.118622D+00 -0.110413D+00  0.107602D-02 -0.627080D-02
     13  0.139877D-01  0.305052D-01  0.876405D-01  0.311614D-01 -0.803679D-01
     14 -0.299233D-01 -0.521455D-01 -0.109467D+00 -0.240946D-01  0.167195D-01
     15  0.187905D-01  0.229916D-02  0.133319D-01  0.469919D-01 -0.105552D+00
     16 -0.183792D-02  0.421445D-02  0.606831D-03 -0.434405D-01  0.912088D-02
     17 -0.153239D-01 -0.321599D-01 -0.576768D-03  0.235171D-01 -0.458157D+00
     18  0.161943D-01  0.263256D-01 -0.735366D-03 -0.269454D-01  0.874471D-01
     19  0.189501D-02 -0.464732D-02  0.973915D-02  0.980246D-02 -0.438293D-02
     20  0.139307D-02  0.178690D-02  0.121369D-02 -0.883835D-02 -0.237449D-01
     21  0.348976D-03  0.697438D-03 -0.291189D-02 -0.191191D-02  0.942197D-02
     22  0.502491D-02  0.374345D-02 -0.878522D-02  0.827904D-02  0.570176D-02
     23  0.125562D-02  0.789441D-03  0.495470D-02  0.157304D-01 -0.306102D-01
     24 -0.833318D-02 -0.406948D-02 -0.614814D-03 -0.338149D-02  0.333316D-01
     25 -0.163757D-02  0.808539D-03 -0.168886D-02 -0.135087D-02  0.246833D-03
     26 -0.209195D-03  0.292836D-03 -0.411779D-03 -0.191393D-03  0.439394D-03
     27  0.119172D-02 -0.839050D-03  0.733617D-03  0.284538D-02 -0.441855D-03
                6             7             8             9            10 
      6  0.264379D+00
      7 -0.699703D-02  0.312776D+00
      8  0.342871D-02  0.618474D-01  0.539445D-01
      9 -0.138132D-01  0.769006D-01  0.157336D-03  0.503030D-01
     10 -0.131156D-01 -0.926575D-02 -0.174076D-01  0.156613D-01  0.126256D+00
     11  0.127490D-01 -0.117376D-02 -0.153312D-02  0.502656D-02  0.110115D+00
     12 -0.600703D-02 -0.604028D-02 -0.593196D-02  0.992052D-02 -0.695555D-01
     13 -0.107828D-01  0.154320D-02 -0.441620D-02 -0.104126D-02 -0.209974D-03
     14 -0.284974D-02  0.107337D-02 -0.243927D-02 -0.317812D-02 -0.246189D-02
     15 -0.646340D-01 -0.663978D-03  0.419079D-02  0.881773D-02  0.352950D-02
     16 -0.294058D-01  0.848982D-03  0.793320D-03 -0.214236D-02 -0.564438D-03
     17  0.117924D+00 -0.287349D-02  0.294620D-02 -0.919809D-02  0.726340D-03
     18 -0.118319D+00  0.205643D-02 -0.792605D-03  0.450169D-02 -0.196511D-02
     19 -0.882739D-02 -0.182443D-02  0.130942D-02  0.128494D-02  0.340342D-03
     20 -0.169886D-01  0.104599D-02 -0.436194D-03  0.571039D-03  0.462221D-04
     21  0.111970D-01  0.507675D-03 -0.914785D-03 -0.150736D-03 -0.376178D-05
     22  0.554010D-02  0.753014D-03 -0.128398D-02 -0.630159D-03 -0.124477D-02
     23  0.410958D-01  0.862196D-03 -0.797933D-03  0.188936D-02  0.916295D-03
     24 -0.151100D-01 -0.162069D-02  0.222847D-02 -0.198247D-02 -0.670593D-04
     25  0.424518D-02  0.268558D-03 -0.124017D-03 -0.229822D-03  0.143556D-03
     26  0.197908D-02 -0.100007D-03 -0.929248D-04 -0.650963D-04  0.277288D-04
     27  0.510881D-02  0.216408D-03 -0.218967D-03  0.517682D-03  0.123501D-03
               11            12            13            14            15 
     11  0.190483D+00
     12 -0.126398D+00  0.120360D+00
     13 -0.824435D-03 -0.422653D-03 -0.460181D-01
     14  0.916388D-02  0.158241D-01  0.536655D-01  0.363502D-01
     15 -0.936111D-02 -0.135272D-01 -0.680241D-01  0.102383D+00  0.528953D-01
     16  0.190706D-02  0.473808D-02 -0.844675D-03  0.164373D-02  0.452771D-03
     17  0.561563D-02  0.337104D-02  0.621658D-02 -0.119338D-01  0.823332D-02
     18  0.347706D-02  0.694724D-03 -0.120555D-01  0.108699D-02  0.639784D-03
     19 -0.833233D-03 -0.748545D-03 -0.126789D-03  0.676485D-02 -0.240172D-02
     20  0.339487D-03  0.501247D-03 -0.288105D-02  0.106827D-03 -0.374426D-03
     21 -0.138273D-03 -0.469236D-04  0.890514D-04 -0.849567D-03  0.790520D-03
     22  0.145884D-02 -0.134651D-02  0.652828D-04 -0.636512D-02  0.912467D-03
     23 -0.134787D-02  0.636330D-03 -0.240397D-02  0.417550D-02 -0.144448D-02
     24 -0.110673D-03 -0.105337D-02  0.512534D-02 -0.364479D-02  0.199830D-02
     25 -0.351619D-03  0.160335D-03  0.442007D-03 -0.302567D-03  0.412629D-03
     26 -0.263553D-03 -0.353357D-03  0.506257D-03  0.253643D-05 -0.374600D-03
     27 -0.108370D-03  0.729107D-04 -0.528600D-03  0.694733D-03 -0.312256D-03
               16            17            18            19            20 
     16  0.185095D+00
     17  0.338024D-01  0.802469D+00
     18  0.170833D+00 -0.339060D-01  0.508052D+00
     19 -0.636442D-01 -0.580216D-01 -0.517606D-01  0.546459D-01
     20 -0.636078D-01 -0.208799D+00 -0.127732D+00  0.667123D-01  0.220539D+00
     21 -0.497254D-01 -0.118723D+00 -0.138493D+00  0.673392D-01  0.127617D+00
     22 -0.692342D-01  0.260259D-01 -0.825646D-01 -0.444037D-02  0.479411D-02
     23  0.230135D-02 -0.108392D+00  0.263675D-01 -0.699684D-02  0.928955D-02
     24 -0.741994D-01  0.681555D-01 -0.218577D+00 -0.112283D-01  0.114147D-01
     25 -0.637763D-02 -0.140693D-01 -0.137925D-01  0.335207D-02  0.133551D-02
     26  0.982462D-02  0.841104D-02  0.177262D-01  0.952989D-04  0.918302D-03
     27 -0.211578D-01 -0.352799D-01 -0.377632D-01 -0.339664D-02  0.377725D-02
               21            22            23            24            25 
     21  0.159739D+00
     22 -0.137724D-01  0.118495D+00
     23 -0.194382D-01  0.750264D-01  0.390178D+00
     24 -0.266289D-01  0.174733D+00  0.737470D-01  0.405876D+00
     25 -0.287138D-02 -0.576977D-01 -0.866914D-01 -0.810282D-01  0.628576D-01
     26  0.232766D-02 -0.109101D+00 -0.263284D+00 -0.181052D+00  0.991480D-01
     27 -0.349478D-02 -0.740867D-01 -0.127808D+00 -0.143907D+00  0.947926D-01
               26            27 
     26  0.253577D+00
     27  0.160224D+00  0.179044D+00
 Leave Link  716 at Wed Jan  6 20:27:31 2021, MaxMem=    33554432 cpu:         0.1
 (Enter /apps/applications/gaussian/G09.D01/2/default/g09/l9999.exe)
 1\1\GINC-DC1S0B3B\Freq\UB3LYP\3-21G\C3H5O1(2)\CHMRSH\06-Jan-2021\0\\#P
  b3lyp/3-21G scf=qc opt(calcall, ts, noeigentest, cartesian,maxcycle=1
 00)\\Gaussian input prepared by ASE\\0,2\C,-0.5044348476,1.0907852236,
 -0.9358494195\C,0.2633838159,0.2068116354,-0.0898871748\H,-1.532945946
 9,0.8738273534,-1.2223393871\H,0.02413507,1.8540431907,-1.4987285029\H
 ,-0.1886106812,1.3632869792,0.3429610869\C,0.2441676698,-1.0709084409,
 0.2754354596\H,-0.086623271,-1.8739170631,-0.3791245301\O,0.7222581141
 ,-1.5989059833,1.4743588564\H,1.0586700769,-0.845022895,2.0331736116\\
 Version=ES64L-G09RevD.01\State=2-A\HF=-191.3014043\S2=0.758235\S2-1=0.
 \S2A=0.750029\RMSD=0.000e+00\RMSF=1.568e-06\ZeroPoint=0.0654775\Therma
 l=0.0704076\Dipole=-0.2733017,0.605233,0.0568687\DipoleDeriv=0.0405785
 ,0.4426313,-0.0616668,0.224763,-0.2280749,-0.1612985,0.0825641,-0.0657
 834,-0.1098071,-0.4067337,-0.2862109,-0.0544055,-0.1317767,-0.3545994,
 0.2692726,-0.0577557,-0.2052993,-0.2289093,-0.0854177,0.0014866,-0.076
 5125,-0.065571,0.0906691,0.055412,-0.1084463,0.1473129,0.0241396,0.033
 0205,-0.07566,-0.0064475,-0.0799098,0.0530923,0.0892069,-0.0428665,0.1
 463896,0.0258229,0.2290963,-0.1376146,0.13802,-0.0199897,0.1852167,-0.
 1378272,0.0478867,-0.0818999,0.0730415,0.2080422,-0.1362873,0.384571,0
 .0094445,0.6805521,-0.2544004,0.336521,-0.4476634,0.8351514,0.1429797,
 -0.0713471,-0.0694307,0.0000684,-0.0413633,-0.0420677,-0.0874643,-0.03
 59507,0.0089806,-0.4992736,0.3175917,-0.1953702,0.1850843,-0.4749716,0
 .351495,-0.1394099,0.6488916,-0.9231115,0.3377079,-0.0545898,-0.058758
 ,-0.1221131,0.0894791,-0.1697927,-0.031029,-0.1059975,0.2946919\Polar=
 22.8239489,-4.8865082,48.0138238,11.1148062,-13.5158334,37.4259004\PG=
 C01 [X(C3H5O1)]\NImag=1\\0.54642573,0.08181841,0.38777358,0.05061122,-
 0.23457539,0.22152561,-0.14260420,0.05596152,-0.13915721,0.13745334,0.
 12724300,-0.07231033,0.22614520,-0.07732201,0.58768573,-0.08042170,0.1
 1007940,-0.06280157,0.13976509,-0.26741779,0.26437906,-0.29569357,-0.0
 6010911,-0.06435912,-0.00940593,-0.00057262,-0.00699703,0.31277593,-0.
 06132190,-0.06217613,-0.00214700,0.02060348,0.01058481,0.00342871,0.06
 184744,0.05394455,-0.07052091,-0.01853941,-0.05811422,-0.01928234,0.02
 333641,-0.01381319,0.07690058,0.00015734,0.05030300,-0.12556009,-0.112
 29518,0.06539271,0.01010529,0.02033297,-0.01311563,-0.00926575,-0.0174
 0755,0.01566133,0.12625583,-0.10493176,-0.17185094,0.11486407,-0.00536
 615,-0.03060667,0.01274904,-0.00117376,-0.00153312,0.00502656,0.110115
 06,0.19048316,0.07213903,0.11862175,-0.11041322,0.00107602,-0.00627080
 ,-0.00600703,-0.00604028,-0.00593196,0.00992052,-0.06955547,-0.1263983
 0,0.12035961,0.01398769,0.03050524,0.08764049,0.03116139,-0.08036789,-
 0.01078278,0.00154320,-0.00441620,-0.00104126,-0.00020997,-0.00082443,
 -0.00042265,-0.04601813,-0.02992329,-0.05214548,-0.10946672,-0.0240945
 6,0.01671951,-0.00284974,0.00107337,-0.00243927,-0.00317812,-0.0024618
 9,0.00916388,0.01582406,0.05366548,0.03635025,0.01879055,0.00229916,0.
 01333186,0.04699187,-0.10555181,-0.06463399,-0.00066398,0.00419079,0.0
 0881773,0.00352950,-0.00936111,-0.01352721,-0.06802407,0.10238315,0.05
 289526,-0.00183792,0.00421445,0.00060683,-0.04344052,0.00912088,-0.029
 40583,0.00084898,0.00079332,-0.00214236,-0.00056444,0.00190706,0.00473
 808,-0.00084468,0.00164373,0.00045277,0.18509460,-0.01532394,-0.032159
 89,-0.00057677,0.02351710,-0.45815732,0.11792413,-0.00287349,0.0029462
 0,-0.00919809,0.00072634,0.00561563,0.00337104,0.00621658,-0.01193376,
 0.00823332,0.03380243,0.80246893,0.01619430,0.02632558,-0.00073537,-0.
 02694540,0.08744705,-0.11831903,0.00205643,-0.00079261,0.00450169,-0.0
 0196511,0.00347706,0.00069472,-0.01205551,0.00108699,0.00063978,0.1708
 3308,-0.03390597,0.50805167,0.00189501,-0.00464732,0.00973915,0.009802
 46,-0.00438293,-0.00882739,-0.00182443,0.00130942,0.00128494,0.0003403
 4,-0.00083323,-0.00074855,-0.00012679,0.00676485,-0.00240172,-0.063644
 20,-0.05802158,-0.05176062,0.05464590,0.00139307,0.00178690,0.00121369
 ,-0.00883835,-0.02374494,-0.01698863,0.00104599,-0.00043619,0.00057104
 ,0.00004622,0.00033949,0.00050125,-0.00288105,0.00010683,-0.00037443,-
 0.06360784,-0.20879867,-0.12773182,0.06671234,0.22053873,0.00034898,0.
 00069744,-0.00291189,-0.00191191,0.00942197,0.01119699,0.00050768,-0.0
 0091479,-0.00015074,-0.00000376,-0.00013827,-0.00004692,0.00008905,-0.
 00084957,0.00079052,-0.04972538,-0.11872324,-0.13849291,0.06733918,0.1
 2761695,0.15973863,0.00502491,0.00374345,-0.00878522,0.00827904,0.0057
 0176,0.00554010,0.00075301,-0.00128398,-0.00063016,-0.00124477,0.00145
 884,-0.00134651,0.00006528,-0.00636512,0.00091247,-0.06923420,0.026025
 87,-0.08256461,-0.00444037,0.00479411,-0.01377244,0.11849478,0.0012556
 2,0.00078944,0.00495470,0.01573036,-0.03061018,0.04109580,0.00086220,-
 0.00079793,0.00188936,0.00091630,-0.00134787,0.00063633,-0.00240397,0.
 00417550,-0.00144448,0.00230135,-0.10839217,0.02636753,-0.00699684,0.0
 0928955,-0.01943815,0.07502638,0.39017808,-0.00833318,-0.00406948,-0.0
 0061481,-0.00338149,0.03333162,-0.01511004,-0.00162069,0.00222847,-0.0
 0198247,-0.00006706,-0.00011067,-0.00105337,0.00512534,-0.00364479,0.0
 0199830,-0.07419944,0.06815551,-0.21857737,-0.01122835,0.01141471,-0.0
 2662889,0.17473303,0.07374696,0.40587568,-0.00163757,0.00080854,-0.001
 68886,-0.00135087,0.00024683,0.00424518,0.00026856,-0.00012402,-0.0002
 2982,0.00014356,-0.00035162,0.00016034,0.00044201,-0.00030257,0.000412
 63,-0.00637763,-0.01406931,-0.01379255,0.00335207,0.00133551,-0.002871
 38,-0.05769770,-0.08669138,-0.08102818,0.06285758,-0.00020920,0.000292
 84,-0.00041178,-0.00019139,0.00043939,0.00197908,-0.00010001,-0.000092
 92,-0.00006510,0.00002773,-0.00026355,-0.00035336,0.00050626,0.0000025
 4,-0.00037460,0.00982462,0.00841104,0.01772619,0.00009530,0.00091830,0
 .00232766,-0.10910132,-0.26328442,-0.18105232,0.09914801,0.25357679,0.
 00119172,-0.00083905,0.00073362,0.00284538,-0.00044186,0.00510881,0.00
 021641,-0.00021897,0.00051768,0.00012350,-0.00010837,0.00007291,-0.000
 52860,0.00069473,-0.00031226,-0.02115776,-0.03527993,-0.03776319,-0.00
 339664,0.00377725,-0.00349478,-0.07408666,-0.12780804,-0.14390703,0.09
 479264,0.16022423,0.17904424\\0.00000205,0.00000020,-0.00000042,0.0000
 0005,0.00000074,0.00000137,0.00000095,-0.00000076,-0.00000256,0.000001
 55,0.00000119,0.00000103,-0.00000204,-0.00000033,0.00000051,0.00000150
 ,0.00000004,-0.00000071,0.00000265,0.00000006,-0.00000154,-0.00000378,
 -0.00000160,0.00000025,-0.00000293,0.00000045,0.00000206\\\@


 IF OTHER PEOPLE ARE GOING TO TALK, CONVERSATION IS SIMPLY IMPOSSIBLE.

                                               -- WHISTLER'S PRINCIPLE
 Job cpu time:       0 days  0 hours  7 minutes 19.0 seconds.
 File lengths (MBytes):  RWF=      9 Int=      0 D2E=      0 Chk=      1 Scr=      1
 Normal termination of Gaussian 09 at Wed Jan  6 20:27:31 2021.
