20
Properties=species:S:1:pos:R:3 energy=-1589.099610135703 pbc="F F F"
O        0.70329200      -0.48562000      -0.22595700
C        1.88279400      -0.34306000       0.00339300
C        2.77173400      -1.52425300       0.34781500
C        3.90579300      -1.71056800      -0.66300300
C        4.84069200      -0.49213900      -0.78056100
C        5.47353400      -0.15615400       0.50916000
H        6.19127300      -0.83386300       0.94313800
C        5.09815600       1.07514800       1.22118500
O        4.09247400       1.70318200       0.93808300
C        6.01789300       1.51067700       2.32512000
H        2.37804800       0.64505800      -0.00879200
H        3.17780100      -1.37996300       1.36897400
H        2.16035200      -2.45005800       0.39643900
H        4.49404000      -2.60728200      -0.38224000
H        3.47808200      -1.92999700      -1.66321700
H        5.62788100      -0.70835200      -1.53765600
H        4.27370500       0.37808200      -1.18423300
H        6.04139000       0.78421800       3.14783100
H        7.04945900       1.64199600       1.97342300
H        5.69361300       2.47264200       2.75278100
20
Properties=species:S:1:pos:R:3 energy=-1589.0941521714217 pbc="F F F"
O        0.68628494      -0.51561055      -0.24141607
C        1.86262499      -0.35899982      -0.00659491
C        2.76378943      -1.53061449       0.34159852
C        3.89923538      -1.69312996      -0.67295923
C        4.85394778      -0.48834207      -0.76237811
C        5.46673485      -0.16678043       0.53734573
H        6.16733525      -0.85085361       0.98044080
C        5.09447624       1.07230360       1.24269775
O        4.07628515       1.68495286       0.98203321
C        6.03430947       1.51823364       2.31837100
H        2.35124223       0.63404970      -0.01833009
H        3.16262968      -1.38563539       1.36540225
H        2.16538243      -2.46632613       0.38522675
H        4.47508399      -2.60614768      -0.43073870
H        3.47122669      -1.86617163      -1.67842042
H        5.65125053      -0.71429203      -1.50547043
H        4.30794997       0.39321758      -1.16895977
H        6.10024128       0.79074181       3.13017764
H        7.04610496       1.66208013       1.92989286
H        5.71587079       2.47701846       2.75376421
20
Properties=species:S:1:pos:R:3 energy=-1589.0788624592305 pbc="F F F"
O        0.66958593      -0.54574956      -0.25729717
C        1.84262993      -0.37527914      -0.01692449
C        2.75604542      -1.53688070       0.33512200
C        3.89286416      -1.67520016      -0.68259221
C        4.86684552      -0.48496352      -0.74387264
C        5.45975940      -0.17758201       0.56551431
H        6.14315028      -0.86826347       1.01732635
C        5.09146964       1.06913204       1.26439754
O        4.06141930       1.66720993       1.02709789
C        6.05068114       1.52553829       2.31074440
H        2.32434815       0.62259574      -0.02846991
H        3.14719272      -1.39156725       1.36172199
H        2.17084713      -2.48227118       0.37353344
H        4.45611778      -2.60297108      -0.47889577
H        3.46477739      -1.80214382      -1.69147536
H        5.67380935      -0.72077908      -1.47311478
H        4.34237154       0.40766237      -1.15297794
H        6.15815123       0.79773021       3.11102398
H        7.04196036       1.68219918       1.88670533
H        5.73797964       2.48127722       2.75411604
20
Properties=species:S:1:pos:R:3 energy=-1589.0552872772712 pbc="F F F"
O        0.65320767      -0.57602619      -0.27358349
C        1.82282102      -0.39187652      -0.02759461
C        2.74850123      -1.54304585       0.32838846
C        3.88667358      -1.65679550      -0.69188469
C        4.87938426      -0.48199510      -0.72505942
C        5.45260621      -0.18855373       0.59365554
H        6.11871947      -0.88607134       1.05378513
C        5.08909664       1.06561193       1.28628676
O        4.04787879       1.64993746       1.07321576
C        6.06701386       1.53262308       2.30225873
H        2.29738315       0.61071777      -0.03920099
H        3.13151226      -1.39774971       1.35792129
H        2.17674710      -2.49787827       0.36136494
H        4.43716083      -2.59777890      -0.52666680
H        3.45871219      -1.73797180      -1.70240669
H        5.69554700      -0.72780489      -1.44061356
H        4.37693770       0.42141340      -1.13631098
H        6.21511316       0.80517623       3.09040661
H        7.03705388       1.70235095       1.84387220
H        5.75993599       2.48541098       2.75384881
20
Properties=species:S:1:pos:R:3 energy=-1589.0248904287125 pbc="F F F"
O        0.63716287      -0.60642961      -0.29025824
C        1.80321046      -0.40877050      -0.03860416
C        2.74115612      -1.54910416       0.32140093
C        3.88065786      -1.63793288      -0.70081941
C        4.89156304      -0.47942857      -0.70595326
C        5.44527386      -0.19969054       0.62175924
H        6.09404419      -0.90425596       1.08980767
C        5.08731771       1.06172186       1.30836780
O        4.03566594       1.63311969       1.12032555
C        6.08331343       1.53952014       2.29293255
H        2.27036460       0.59843746      -0.05051286
H        3.11561045      -1.40417389       1.35398820
H        2.18308329      -2.51313253       0.34872708
H        4.41823260      -2.59059781      -0.57400739
H        3.45300918      -1.67371377      -1.71123925
H        5.71645304      -0.73536123      -1.40799132
H        4.41161643       0.43446769      -1.11898235
H        6.27112040       0.81307294       3.06836211
H        7.03141423       1.72253324       1.80140527
H        5.78173629       2.48941245       2.75297482
20
Properties=species:S:1:pos:R:3 energy=-1588.9890792211665 pbc="F F F"
O        0.62146424      -0.63694900      -0.30730462
C        1.78381044      -0.42593963      -0.04995199
C        2.73400936      -1.55504985       0.31416244
C        3.87481122      -1.61862922      -0.70937911
C        4.90338091      -0.47725568      -0.68656897
C        5.43776092      -0.21098744       0.64981521
H        6.06912581      -0.92279607       1.12538448
C        5.08609330       1.05744041       1.33064306
O        4.02478308       1.61674088       1.16836601
C        6.09958569       1.54626159       2.28278439
H        2.24330988       0.58577645      -0.06239503
H        3.09950941      -1.41083094       1.34991078
H        2.18985670      -2.52801906       0.33562570
H        4.39935257      -2.58145451      -0.62087311
H        3.44764645      -1.60942795      -1.71799790
H        5.73651700      -0.74343983      -1.37527257
H        4.44637570       0.44682226      -1.10101552
H        6.32616626       0.82141340       3.04492706
H        7.02507010       1.74274383       1.75931632
H        5.80337697       2.49327436       2.75150637
20
Properties=species:S:1:pos:R:3 energy=-1588.9492245917793 pbc="F F F"
O        0.60612448      -0.66757352      -0.32470582
C        1.76463315      -0.44336244      -0.06163697
C        2.72706020      -1.56087714       0.30667601
C        3.86912789      -1.59890142      -0.71754654
C        4.91483690      -0.47546818      -0.66692137
C        5.43006597      -0.22243939       0.67781326
H        6.04396570      -0.94167043       1.16050605
C        5.08538385       1.05274620       1.35311493
O        4.01523252       1.60078528       1.21727586
C        6.11583644       1.55287957       2.27183279
H        2.21623635       0.57275640      -0.07483705
H        3.08323130      -1.41771197       1.34567710
H        2.19706829      -2.54252298       0.32206667
H        4.38054021      -2.57037566      -0.66721958
H        3.44260210      -1.54517257      -1.72270748
H        5.75572843      -0.75203246      -1.34248187
H        4.48118352       0.45847413      -1.08243395
H        6.38024405       0.83019067       3.02013804
H        7.01805019       1.76298051       1.71761714
H        5.82485447       2.49698940       2.74945577
20
Properties=species:S:1:pos:R:3 energy=-1588.9066740407443 pbc="F F F"
O        0.59115630      -0.69829235      -0.34244504
C        1.74569079      -0.46101748      -0.07365798
C        2.72030792      -1.56658024       0.29894468
C        3.86360210      -1.57876637      -0.72530444
C        4.92593007      -0.47405785      -0.64702527
C        5.42218756      -0.23404137       0.70574321
H        6.01856522      -0.96085777       1.19516289
C        5.08514983       1.04761781       1.37578579
O        4.00701661       1.58523712       1.26699382
C        6.13207152       1.55940620       2.26009631
H        2.18916140       0.55939897      -0.08782842
H        3.06679824      -1.42480813       1.34127522
H        2.20471905      -2.55662943       0.30805582
H        4.36181497      -2.55738796      -0.71300237
H        3.43785422      -1.48100583      -1.72539286
H        5.77407686      -0.76113084      -1.30964373
H        4.51600786       0.46942034      -1.06326111
H        6.43334708       0.83939779       2.99403163
H        7.01038318       1.78324109       1.67631954
H        5.84616523       2.50055030       2.74683531
20
Properties=species:S:1:pos:R:3 energy=-1588.8627559582958 pbc="F F F"
O        0.57657240      -0.72909465      -0.36050549
C        1.72699555      -0.47888331      -0.08601389
C        2.71375176      -1.57215337       0.29097147
C        3.85822806      -1.55824099      -0.73263556
C        4.93665945      -0.47301642      -0.62689550
C        5.41412427      -0.24578835       0.73359485
H        5.99292576      -0.98033685       1.22934552
C        5.08535169       1.04203383       1.39865806
O        4.00013766       1.57008066       1.31745864
C        6.14829674       1.56587362       2.24759347
H        2.16210240       0.54572581      -0.10135869
H        3.05023238      -1.43211054       1.33669319
H        2.21280995      -2.57032350       0.29359900
H        4.34319633      -2.54251808      -0.75817707
H        3.43338089      -1.41698597      -1.72607888
H        5.79155184      -0.77072674      -1.27678268
H        4.55081670       0.47965790      -1.04352046
H        6.48546867       0.84902783       2.96664443
H        7.00209778       1.80352335       1.63543529
H        5.86730570       2.50394977       2.74365731
20
Properties=species:S:1:pos:R:3 energy=-1588.8187739448545 pbc="F F F"
O        0.56238551      -0.75996960      -0.37887035
C        1.70855963      -0.49693845      -0.09870356
C        2.70739100      -1.57759075       0.28275940
C        3.85300001      -1.53734218      -0.73952264
C        4.94702408      -0.47233565      -0.60654686
C        5.40587468      -0.25767531       0.76135802
H        5.96704868      -1.00008641       1.26304444
C        5.08594988       1.03597287       1.42173411
O        3.99459801       1.55530015       1.36860905
C        6.16451794       1.57231395       2.23434283
H        2.13507672       0.53175858      -0.11541737
H        3.03355585      -1.43961034       1.33191908
H        2.22134196      -2.58359033       0.27870206
H        4.32470375      -2.52579271      -0.80269929
H        3.42916020      -1.35317119      -1.72479040
H        5.80814293      -0.78081191      -1.24392326
H        4.58557803       0.48918383      -1.02323548
H        6.53660214       0.85907385       2.93801300
H        6.99322268       1.82382509       1.59497619
H        5.88827232       2.50718051       2.73993405
20
Properties=species:S:1:pos:R:3 energy=-1588.7759899018029 pbc="F F F"
O        0.54860831      -0.79090636      -0.39752285
C        1.69039522      -0.51516146      -0.11172586
C        2.70122489      -1.58288660       0.27431151
C        3.84791216      -1.51608685      -0.74594842
C        4.95702302      -0.47200730      -0.58599417
C        5.39743736      -0.26969722       0.78902250
H        5.94093536      -1.02008520       1.29625016
C        5.08690486       1.02941352       1.44501634
O        3.99039997       1.54087983       1.42038377
C        6.18074092       1.57875933       2.22036292
H        2.10810175       0.51751893      -0.12999399
H        3.01679081      -1.44729865       1.32694094
H        2.23031606      -2.59641504       0.26337084
H        4.30635670      -2.50723853      -0.84652460
H        3.42517025      -1.28961971      -1.72155227
H        5.82383964      -0.79137809      -1.21109000
H        4.62025984       0.49799516      -1.00242962
H        6.58674080       0.86952890       2.90817392
H        6.98378657       1.84414410       1.55495403
H        5.90906151       2.51023524       2.73567786
20
Properties=species:S:1:pos:R:3 energy=-1588.7355950216586 pbc="F F F"
O        0.53525353      -0.82189410      -0.41644616
C        1.67251452      -0.53353089      -0.12507967
C        2.69525270      -1.58803513       0.26563082
C        3.84295875      -1.49449190      -0.75189565
C        4.96665529      -0.47202313      -0.56525225
C        5.38881086      -0.28184906       0.81657811
H        5.91458715      -1.04031196       1.32895318
C        5.08817707       1.02233437       1.46850715
O        3.98754589       1.52680395       1.47272153
C        6.19697152       1.58524188       2.20567230
H        2.08119484       0.50302852      -0.14507808
H        2.99995937      -1.45516661       1.32174684
H        2.23973323      -2.60878273       0.24761119
H        4.28817464      -2.48688223      -0.88960860
H        3.42138914      -1.22638976      -1.71638935
H        5.83863154      -0.80241703      -1.17830743
H        4.65483010       0.50608891      -0.98112635
H        6.63587796       0.88038604       2.87716379
H        6.97381815       1.86447818       1.51538060
H        5.92966974       2.51310668       2.73090103
20
Properties=species:S:1:pos:R:3 energy=-1588.6986683593793 pbc="F F F"
O        0.52233386      -0.85292200      -0.43562349
C        1.65492972      -0.55202527      -0.13876386
C        2.68947369      -1.59303057       0.25672036
C        3.83813400      -1.47257423      -0.75734708
C        4.97591995      -0.47237489      -0.54433591
C        5.37999378      -0.29412580       0.84401467
H        5.88800544      -1.06074544       1.36114402
C        5.08972698       1.01471402       1.49220894
O        3.98603807       1.51305676       1.52556107
C        6.21321555       1.59179373       2.19028949
H        2.05437339       0.48830901      -0.16065916
H        2.98308369      -1.46320535       1.31632483
H        2.24959445      -2.62067853       0.23142896
H        4.27017705      -2.46475048      -0.93190688
H        3.41779494      -1.16353954      -1.70932648
H        5.85250817      -0.81392048      -1.14560008
H        4.68925680       0.51346210      -0.95934914
H        6.68400694       0.89163833       2.84501918
H        6.96334611       1.88482511       1.47626769
H        5.95009342       2.51578754       2.72561586
20
Properties=species:S:1:pos:R:3 energy=-1588.6661234328885 pbc="F F F"
O        0.50986201      -0.88397923      -0.45503804
C        1.63765300      -0.57062315      -0.15277728
C        2.68388713      -1.59786713       0.24758316
C        3.83343213      -1.45035076      -0.76228544
C        4.98481604      -0.47305434      -0.52325996
C        5.37098467      -0.30652241       0.87132197
H        5.86119160      -1.08136438       1.39281318
C        5.09151504       1.00653106       1.51612408
O        3.98587885       1.49962250       1.57884112
C        6.22947884       1.59844700       2.17423305
H        2.02765476       0.47338205      -0.17672676
H        2.96618591      -1.47140600       1.31066299
H        2.25990068      -2.63208756       0.21483000
H        4.25238338      -2.44086998      -0.97337504
H        3.41436575      -1.10112729      -1.70038852
H        5.86545906      -0.82588020      -1.11299248
H        4.72350793       0.52011177      -0.93712145
H        6.73112106       0.90327882       2.81177668
H        6.95239916       1.90518269       1.43762710
H        5.97032901       2.51827052       2.71983465
20
Properties=species:S:1:pos:R:3 energy=-1588.6386443574788 pbc="F F F"
O        0.49785069      -0.91505495      -0.47467302
C        1.62069658      -0.58930308      -0.16711883
C        2.67849226      -1.60253903       0.23822224
C        3.82884737      -1.42783838      -0.76669347
C        4.99334260      -0.47405322      -0.50203923
C        5.36178211      -0.31903388       0.89848984
H        5.83414698      -1.10214753       1.42395117
C        5.09350170       0.99776408       1.54025498
O        3.98707056       1.48648543       1.63250042
C        6.24576721       1.60523384       2.15752151
H        2.00105633       0.45826930      -0.19327041
H        2.94928815      -1.47975970       1.30474936
H        2.27065292      -2.64299493       0.19782015
H        4.23481312      -2.41526739      -1.01396865
H        3.41107966      -1.03921120      -1.68960033
H        5.87747376      -0.83828792      -1.08050916
H        4.75755146       0.52603492      -0.91446674
H        6.77721363       0.91530057       2.77747285
H        6.94100597       1.92554872       1.39947061
H        5.99037295       2.52054835       2.71356972
20
Properties=species:S:1:pos:R:3 energy=-1588.6166143870612 pbc="F F F"
O        0.48631261      -0.94613834      -0.49451161
C        1.60407264      -0.60804359      -0.18178735
C        2.67328837      -1.60704048       0.22864063
C        3.82437394      -1.40505399      -0.77055393
C        5.00149866      -0.47536330      -0.48068852
C        5.35238467      -0.33165517       0.92550807
H        5.80687298      -1.12307364       1.45454849
C        5.09564741       0.98839169       1.56460403
O        3.98961552       1.47362978       1.68647768
C        6.26208647       1.61218637       2.14017342
H        1.97459547       0.44299241      -0.21027963
H        2.93241257      -1.48825757       1.29857200
H        2.28185213      -2.65338577       0.18040526
H        4.21748571      -2.38796941      -1.05364333
H        3.40791477      -0.97784951      -1.67698675
H        5.88854181      -0.85113540      -1.04817465
H        4.79135539       0.53122859      -0.89140849
H        6.82227796       0.92769664       2.74214430
H        6.92919526       1.94592098       1.36181002
H        6.01022167       2.52261372       2.70683337
20
Properties=species:S:1:pos:R:3 energy=-1588.600041433996 pbc="F F F"
O        0.47526047      -0.97721856      -0.51453702
C        1.58779337      -0.62682324      -0.19678173
C        2.66827470      -1.61136571       0.21884136
C        3.82000607      -1.38201452      -0.77384956
C        5.00928329      -0.47697633      -0.45922265
C        5.34279092      -0.34438126       0.95236649
H        5.77937095      -1.14412145       1.48459566
C        5.09791264       0.97839248       1.58917362
O        3.99351607       1.46103982       1.74071165
C        6.27844246       1.61933671       2.12220733
H        1.94828956       0.42757303      -0.22774394
H        2.91558129      -1.49689075       1.29211899
H        2.29349929      -2.66324519       0.16259117
H        4.20042063      -2.35900272      -1.09235464
H        3.40484916      -0.91710043      -1.66257264
H        5.89865276      -0.86441439      -1.01601349
H        4.82488769       0.53568979      -0.86797016
H        6.86630737       0.94046008       2.70582759
H        6.91699571       1.96629728       1.32465712
H        6.02987161       2.52445937       2.69963789
20
Properties=species:S:1:pos:R:3 energy=-1588.5884870956452 pbc="F F F"
O        0.46470699      -1.00828478      -0.53473245
C        1.57187098      -0.64562058      -0.21210083
C        2.66345052      -1.61550894       0.20882746
C        3.81573799      -1.35873685      -0.77656310
C        5.01669551      -0.47888407      -0.43765645
C        5.33299943      -0.35720712       0.97905489
H        5.75164226      -1.16526971       1.51408318
C        5.10025782       0.96774504       1.61396614
O        3.99877451       1.44869978       1.79514105
C        6.29484100       1.62671700       2.10364176
H        1.92215598       0.41203283      -0.24565288
H        2.89881647      -1.50565036       1.28537837
H        2.30559538      -2.67255832       0.14438373
H        4.18363735      -2.32839400      -1.13005819
H        3.40186092      -0.85702218      -1.64638285
H        5.90779615      -0.87811664      -0.98405021
H        4.85811636       0.53941555      -0.84417522
H        6.90929517       0.95358395       2.66855931
H        6.90443602       1.98667540       1.28802370
H        6.04931922       2.52607799       2.69199558
20
Properties=species:S:1:pos:R:3 energy=-1588.5810076145308 pbc="F F F"
O        0.45466486      -1.03932619      -0.55508110
C        1.55631764      -0.66441413      -0.22774352
C        2.65881510      -1.61946438       0.19860195
C        3.81156391      -1.33523790      -0.77867730
C        5.02373437      -0.48107827      -0.41600471
C        5.32300877      -0.37012774       1.00556309
H        5.72368829      -1.18649716       1.54300155
C        5.10264342       0.95642797       1.63898400
O        4.00539319       1.43659391       1.84970462
C        6.31128790       1.63435937       2.08449528
H        1.89621209       0.39639346      -0.26399597
H        2.88214023      -1.51452754       1.27833821
H        2.31814137      -2.68131026       0.12578880
H        4.16715534      -2.29616993      -1.16670957
H        3.39892814      -0.79767297      -1.62844224
H        5.91596152      -0.89223389      -0.95230933
H        4.89100936       0.54240290      -0.82004712
H        6.95123468       0.96706132       2.63037604
H        6.89154488       2.00705313       1.25192155
H        6.06856093       2.52746230       2.68391877
20
Properties=species:S:1:pos:R:3 energy=-1588.5761166091293 pbc="F F F"
O        0.44514680      -1.07033194      -0.57556616
C        1.54114557      -0.68318245      -0.24370868
C        2.65436769      -1.62322624       0.18816787
C        3.80747806      -1.31153457      -0.78017490
C        5.03039891      -0.48355068      -0.39428227
C        5.31281751      -0.38313808       1.03188090
H        5.69551041      -1.20778256       1.57134130
C        5.10502990       0.94441985       1.66422958
O        4.01337443       1.42470647       1.90434108
C        6.32778899       1.64229594       2.06478641
H        1.87047528       0.38067658      -0.28276274
H        2.86557472      -1.52351343       1.27098657
H        2.33113824      -2.68948615       0.10681221
H        4.15099405      -2.26235720      -1.20226436
H        3.39602893      -0.73911103      -1.60877565
H        5.92313842      -0.90675790      -0.92081538
H        4.92353470       0.54464885      -0.79560933
H        6.99211921       0.98088523       2.59131437
H        6.87835098       2.02742828       1.21636245
H        6.08759319       2.52860502       2.67541974
20
Properties=species:S:1:pos:R:3 energy=-1588.5717797688487 pbc="F F F"
O        0.43616550      -1.10129120      -0.59617084
C        1.52636695      -0.70190409      -0.25999517
C        2.65010756      -1.62678876       0.17752823
C        3.80347468      -1.28764376      -0.78103863
C        5.03668817      -0.48629307      -0.37250392
C        5.30242423      -0.39623311       1.05799813
H        5.66710999      -1.22910463       1.59909291
C        5.10737769       0.93169930       1.68970528
O        4.02272056       1.41302169       1.95898917
C        6.34435010       1.65055885       2.04453370
H        1.84496292       0.36490383      -0.30194271
H        2.84914208      -1.53259914       1.26331150
H        2.34458697      -2.69707109       0.08745981
H        4.13517295      -2.22698248      -1.23667816
H        3.39314135      -0.68139457      -1.58740795
H        5.92931638      -0.92168041      -0.88959291
H        4.95566035       0.54615043      -0.77088533
H        7.03194208       0.99504874       2.55141087
H        6.86488304       2.04779863       1.18135822
H        6.10641244       2.52949885       2.66651080
20
Properties=species:S:1:pos:R:3 energy=-1588.5654505190066 pbc="F F F"
O        0.42773369      -1.13219315      -0.61687833
C        1.51199398      -0.72055759      -0.27660186
C        2.64603397      -1.63014614       0.16668607
C        3.79954797      -1.26358238      -0.78125126
C        5.04260121      -0.48929719      -0.35068450
C        5.29182750      -0.40940782       1.08390458
H        5.63848840      -1.25044215       1.62624691
C        5.10964727       0.91824490       1.71541349
O        4.03343389       1.40152383       2.01358763
C        6.36097703       1.65918022       2.02375570
H        1.81969238       0.34909688      -0.32152540
H        2.83286444      -1.54177582       1.25530108
H        2.35848854      -2.70405021       0.06773745
H        4.11971153      -2.19007247      -1.26990657
H        3.39024352      -0.62458180      -1.56436398
H        5.93448496      -0.93699318      -0.85866643
H        4.98735429       0.54690466      -0.74589858
H        7.07069660       1.00954491       2.51070212
H        6.85116972       2.06816198       1.14692062
H        6.12501511       2.53013651       2.65720425
20
Properties=species:S:1:pos:R:3 energy=-1588.5541524832527 pbc="F F F"
O        0.41986407      -1.16302696      -0.63767184
C        1.49803885      -0.73912149      -0.29352763
C        2.64214618      -1.63329260       0.15564441
C        3.79569218      -1.23936733      -0.78079552
C        5.04813705      -0.49255479      -0.32883881
C        5.28102588      -0.42265718       1.10959008
H        5.60964700      -1.27177384       1.65279380
C        5.11179908       0.90403525       1.74135660
O        4.04551677       1.39019714       2.06807517
C        6.37767563       1.66819218       2.00247094
H        1.79468103       0.33327738      -0.34150035
H        2.81676395      -1.55103459       1.24694335
H        2.37284391      -2.71040862       0.04765098
H        4.10462923      -2.15165384      -1.30190516
H        3.38731351      -0.56873096      -1.53966859
H        5.93863369      -0.95268795      -0.82806048
H        5.01858452       0.54690857      -0.72067253
H        7.10837609       1.02436680       2.46922471
H        6.83723975       2.08851612       1.11306146
H        6.14339765       2.53051071       2.64751241
20
Properties=species:S:1:pos:R:3 energy=-1588.5346098598875 pbc="F F F"
O        0.41256933      -1.19378179      -0.65853456
C        1.48451376      -0.75757433      -0.31077133
C        2.63844346      -1.63622237       0.14440628
C        3.79190152      -1.21501552      -0.77965415
C        5.05329475      -0.49605763      -0.30698167
C        5.27001794      -0.43597616       1.13504441
H        5.58058718      -1.29307845       1.67872409
C        5.11379357       0.88904893       1.76753700
O        4.05897151       1.37902585       2.12239054
C        6.39445170       1.67762686       1.98069798
H        1.76994626       0.31746699      -0.36185708
H        2.80086274      -1.56036659       1.23822638
H        2.38765407      -2.71613145       0.02720624
H        4.08994552      -2.11175328      -1.33262953
H        3.38432943      -0.51390025      -1.51334665
H        5.94175212      -0.96875647      -0.79779960
H        5.04931901       0.54615917      -0.69523066
H        7.14497386       1.03950747       2.42701522
H        6.82312179       2.10885884       1.07979253
H        6.16155649       2.53061416       2.63744756
20
Properties=species:S:1:pos:R:3 energy=-1588.5034204308408 pbc="F F F"
O        0.40586220      -1.22444682      -0.67944970
C        1.47143089      -0.77589467      -0.32833185
C        2.63492506      -1.63892966       0.13297471
C        3.78817021      -1.19054386      -0.77780990
C        5.05807334      -0.49979746      -0.28512789
C        5.25880227      -0.44935973       1.16025741
H        5.55131029      -1.31433473       1.70402827
C        5.11559120       0.87326456       1.79395710
O        4.07380045       1.36799423       2.17647246
C        6.41131107       1.68751639       1.95845534
H        1.74550544       0.30168736      -0.38258512
H        2.78518296      -1.56976295       1.22913824
H        2.40291999      -2.72120381       0.00640909
H        4.07567988      -2.07039746      -1.36203528
H        3.38126935      -0.46014789      -1.48542299
H        5.94382978      -0.98519049      -0.76790830
H        5.07952574       0.54465350      -0.66959644
H        7.18048322       1.05495997       2.38411023
H        6.80884456       2.12918794       1.04712561
H        6.17948808       2.53043958       2.62702201
20
Properties=species:S:1:pos:R:3 energy=-1588.4572597861434 pbc="F F F"
O        0.39975537      -1.25501121      -0.70040045
C        1.45880245      -0.79406105      -0.34620805
C        2.63159025      -1.64140868       0.12135273
C        3.78449249      -1.16596924      -0.77524552
C        5.06247188      -0.50376604      -0.26329229
C        5.24737742      -0.46280288       1.18521887
H        5.52181772      -1.33552143       1.72869688
C        5.11715243       0.85666072       1.82061928
O        4.09000590       1.35708651       2.23025966
C        6.42825956       1.69789291       1.93576158
H        1.72137594       0.28596015      -0.40367399
H        2.76974673      -1.57921480       1.21966697
H        2.41864265      -2.72561082      -0.01473465
H        4.06185177      -2.02761308      -1.39007799
H        3.37811138      -0.40753210      -1.45592249
H        5.94485624      -1.00198176      -0.73841113
H        5.10917271       0.54238857      -0.64379332
H        7.21489750       1.07071735       2.34054633
H        6.79443675       2.14950120       1.01507250
H        6.19718885       2.52997968       2.61624807
20