20
Properties=species:S:1:pos:R:3 energy=-1586.4455663541203 pbc="F F F"
O        0.38242791      -1.66461214      -0.98987854
C        1.33593329      -1.02270986      -0.62640127
C        2.60535022      -1.64932148      -0.05952847
C        3.73462917      -0.81994180      -0.65969057
C        5.08258264      -0.57891577       0.03349218
C        5.06622371      -0.65482447       1.50463872
H        5.08686663      -1.61426808       2.00412356
C        5.10164089       0.53796928       2.21628579
O        4.45603299       1.20459893       2.92134305
C        6.67340326       1.90321933       1.58182389
H        1.42450432       0.07956641      -0.73091365
H        2.58820959      -1.71423665       1.04286471
H        2.68452172      -2.71107299      -0.34247083
H        3.92038077      -1.29704323      -1.61856109
H        3.31430961       0.18348916      -0.89429247
H        5.84655430      -1.26708995      -0.37714176
H        5.45200353       0.43230348      -0.27664362
H        7.58245472       1.32041270       1.68241252
H        6.59339130       2.43160484       0.63625988
H        6.42058542       2.49056628       2.43396098
