20
Properties=species:S:1:pos:R:3:momenta:R:3:forces:R:3 pbc="F F F"
O        1.16386858      -3.04658906       2.04052497      -0.36097251      -2.23543208       0.79426607      -0.02417343      -0.02299375       0.01969037
C        2.28437597      -2.63408080       2.24406288       1.22965791      -0.21020996      -0.85975221      -0.00521811       0.00778398      -0.03861487
C        2.71277911      -1.26317879       1.77614855       1.75012094      -0.23444152      -1.06659383       0.02611650       0.00328852      -0.02666314
C        4.05932062      -0.81587175       2.34560231      -0.37699046       0.32472544       0.50520129      -0.00357791       0.02863643       0.03837847
C        4.51525438       0.55080059       1.79446208       1.52950164      -0.04268238       0.34329055      -0.00727687      -0.00936605       0.01473221
C        5.49012067       0.44925875       0.66215526       0.52892224      -1.60014483       0.12558586      -0.02995853      -0.01252606       0.00840002
H        5.17438196       0.85706265      -0.29546128      -0.31682168       0.36184929      -0.10945690      -0.00672940      -0.05755143       0.00049640
C        6.70333234      -0.04233203       0.81581046      -1.17072519      -0.06705227      -0.15902625      -0.26340935      -0.33197302      -0.05349841
O        7.74030322      -0.56045858       0.93457150      -0.01441720      -1.86947967       1.39222489       0.05784680      -0.07612741       0.01901627
C        7.69305838       2.25195029       0.74612758       0.75853501       1.93455533       0.27137261       0.13406428       0.39747010       0.00860819
H        3.03473244      -3.24935741       2.76501784       0.04738827       0.09966115       0.15789105       0.02868292       0.05124071       0.00233804
H        2.74390520      -1.26998292       0.66402570      -0.11341583      -0.20390653       0.18607791       0.02028014       0.03150695      -0.01503310
H        1.91028076      -0.53104685       2.02277049       0.43747159       0.10874231      -0.02015917       0.07831831      -0.02133835      -0.02556961
H        3.97786237      -0.74571341       3.44870721       0.05129887       0.11217931       0.21282761       0.02817451      -0.01837615       0.02256149
H        4.83783057      -1.58182844       2.14466240       0.39960497      -0.33144376       1.12512309      -0.09393914       0.03887448       0.00394579
H        3.63985936       1.14891974       1.46205083      -0.05499078       0.34982398      -0.92810971       0.01028030      -0.04507038       0.02002773
H        4.97132077       1.14446948       2.61625992      -0.07056029      -0.09709186       0.81511493      -0.01962065      -0.01205601       0.01465303
H        6.94032361       2.80224258       0.24117178       0.16208998      -0.21444283       0.52294137       0.01065191       0.01037583       0.00134609
H        7.70403083       2.23391514       1.80653599       0.06280243       0.10646339       0.39478752       0.02432989       0.02529726      -0.00772115
H        8.48942568       1.81562642       0.19971305      -0.22094894       0.00449366       0.22712757       0.03515784       0.01290434      -0.00709382
