22
Properties=species:S:1:pos:R:3 energy=-1890.3621245912577 pbc="F F F"
C        4.48455900      -0.63865600       1.75674300
C        3.26891600      -0.58253200       0.82707500
C        2.82336400      -1.99955300       0.46747200
C        2.50871200      -2.86968300       1.68803700
C        3.36069900      -2.60053600       2.97682800
C        4.10613000      -1.27459400       3.09496000
H        5.29857300      -1.22284700       1.28092700
H        4.89285900       0.37568600       1.92279900
H        2.44105900      -0.02634900       1.30652000
H        3.51759300      -0.02311700      -0.09517700
H        1.95323100      -1.96652600      -0.21500700
H        3.62924000      -2.50736700      -0.11019900
C        1.02375100      -3.00081600       1.97868100
H        2.75505600      -2.77800200       3.89587200
H        5.02488800      -1.44673300       3.69642800
H        3.48703200      -0.56590300       3.68107700
H        0.47599700      -3.37194000       1.10137100
H        0.58576700      -2.03693700       2.26182900
H        0.83008700      -3.71980600       2.78709600
O        4.30597300      -3.72051900       3.01913300
O        4.29188100      -4.24945400       1.69846100
O        2.93572100      -4.25805400       1.36746400
22
Properties=species:S:1:pos:R:3 energy=-1890.3215951468233 pbc="F F F"
C        4.48160567      -0.64124330       1.75962636
C        3.26332580      -0.58882539       0.83351808
C        2.82267771      -2.00542493       0.46561967
C        2.50250601      -2.88764763       1.67629928
C        3.37514263      -2.60594567       2.98389198
C        4.11106557      -1.27433460       3.10265373
H        5.29502461      -1.22216617       1.27882883
H        4.88892319       0.37429424       1.92121348
H        2.43571743      -0.03533708       1.31588896
H        3.50707710      -0.02396687      -0.08766375
H        1.95624771      -1.96597952      -0.22295420
H        3.63345561      -2.50864767      -0.10872837
C        1.01472916      -2.99109548       1.97397467
H        2.75756888      -2.80506370       3.88742715
H        5.03568124      -1.43006847       3.70144171
H        3.48312451      -0.57025148       3.68327788
H        0.46000761      -3.35967386       1.09821652
H        0.58277537      -2.02128912       2.24649285
H        0.80674387      -3.70058737       2.78457072
O        4.34987976      -3.68814960       2.99595183
O        4.30899756      -4.27241876       1.72599625
O        2.92881098      -4.26041556       1.37284635
22
Properties=species:S:1:pos:R:3 energy=-1890.1950637452278 pbc="F F F"
C        4.47867617      -0.64388563       1.76248127
C        3.25786468      -0.59499210       0.83982364
C        2.82185679      -2.01100010       0.46378009
C        2.49456696      -2.90584817       1.66319727
C        3.39153935      -2.61190202       2.99262618
C        4.11612415      -1.27421568       3.11030941
H        5.29154206      -1.22151324       1.27685059
H        4.88503495       0.37282920       1.91970840
H        2.43053250      -0.04407362       1.32498800
H        3.49687245      -0.02484844      -0.08029692
H        1.95921044      -1.96533363      -0.23089071
H        3.63747215      -2.50993791      -0.10712466
C        1.00534468      -2.98144559       1.96915955
H        2.76036236      -2.83131661       3.87818575
H        5.04616919      -1.41360048       3.70638212
H        3.47932928      -0.57472823       3.68537459
H        0.44396651      -3.34781271       1.09497985
H        0.57961099      -2.00609297       2.23158259
H        0.78405600      -3.68185084       2.78199718
O        4.39244071      -3.65647693       2.97223980
O        4.32795175      -4.29485612       1.75475339
O        2.92056389      -4.26133618       1.37828263
22
Properties=species:S:1:pos:R:3 energy=-1889.9784897556358 pbc="F F F"
C        4.47577091      -0.64658379       1.76530495
C        3.25252905      -0.60102954       0.84599092
C        2.82087815      -2.01627914       0.46194233
C        2.48496587      -2.92409774       1.64888170
C        3.40982159      -2.61835498       3.00287835
C        4.12129796      -1.27424127       3.11790235
H        5.28812432      -1.22089030       1.27499301
H        4.88119112       0.37128793       1.91828698
H        2.42550280      -0.05255644       1.33381864
H        3.48697861      -0.02576384      -0.07307511
H        1.96212278      -1.96458586      -0.23882504
H        3.64127270      -2.51124779      -0.10536597
C        0.99556372      -2.97187990       1.96420166
H        2.76355340      -2.85675983       3.86813519
H        5.05632935      -1.39733066       3.71124719
H        3.47564467      -0.57936369       3.68736245
H        0.42784498      -3.33636044       1.09164049
H        0.57625113      -1.99134473       2.21708973
H        0.76201523      -3.66359395       2.77936487
O        4.43366060      -3.62565355       2.94817437
O        4.34870584      -4.31667762       1.78462589
O        2.91106322      -4.26093086       1.38381507
22
Properties=species:S:1:pos:R:3 energy=-1889.6740587410236 pbc="F F F"
C        4.47289034      -0.64933858       1.76809466
C        3.24731534      -0.60693507       0.85201918
C        2.81971872      -2.02126269       0.46009548
C        2.47377378      -2.94220947       1.63350332
C        3.42992177      -2.62525446       3.01449627
C        4.12657927      -1.27441539       3.12540792
H        5.28477040      -1.22029945       1.27325683
H        4.87738859       0.36966745       1.91695247
H        2.42062695      -0.06078336       1.34238238
H        3.47739515      -0.02671524      -0.06599689
H        1.96498833      -1.96373371      -0.24676571
H        3.64484032      -2.51258733      -0.10343044
C        0.98535244      -2.96241197       1.95906699
H        2.76725895      -2.88139250       3.85726287
H        5.06613922      -1.38126062       3.71603483
H        3.47206902      -0.58418826       3.68923676
H        0.41161427      -3.32532097       1.08817797
H        0.57267302      -1.97704065       2.20300578
H        0.74061341      -3.64581428       2.77666328
O        4.47354419      -3.59583202       2.92393298
O        4.37122208      -4.33779481       1.81550720
O        2.90039244      -4.25931463       1.38948587
22
Properties=species:S:1:pos:R:3 energy=-1889.2932657889435 pbc="F F F"
C        4.47003486      -0.65215079       1.77084764
C        3.24221995      -0.61270609       0.85790764
C        2.81835542      -2.02595141       0.45822865
C        2.46106173      -2.95999648       1.61721287
C        3.45177231      -2.63255039       3.02732769
C        4.13196033      -1.27474207       3.13280146
H        5.28147928      -1.21974278       1.27164278
H        4.87362421       0.36796479       1.91570811
H        2.41590355      -0.06875221       1.35068074
H        3.46812163      -0.02770476      -0.05906086
H        1.96781066      -1.96277472      -0.25472121
H        3.64815812      -2.51396660      -0.10129618
C        0.97467701      -2.95305538       1.95372155
H        2.77159598      -2.90521372       3.84555618
H        5.07557632      -1.36539197       3.72074300
H        3.46860067      -0.58923238       3.69099284
H        0.39524567      -3.31469818       1.08457182
H        0.56885393      -1.96317691       2.18932225
H        0.71984237      -3.62850937       2.77388188
O        4.51209622      -3.56716487       2.89969309
O        4.39546273      -4.35811921       1.84729079
O        2.88863506      -4.25660252       1.39533729
22
Properties=species:S:1:pos:R:3 energy=-1888.8637517105833 pbc="F F F"
C        4.46720490      -0.65502121       1.77356113
C        3.23723930      -0.61833999       0.86365557
C        2.81676518      -2.03034594       0.45633090
C        2.44690077      -2.97727190       1.60016107
C        3.47530563      -2.64019268       3.04122039
C        4.13743337      -1.27522532       3.14005829
H        5.27824996      -1.21922236       1.27015159
H        4.86989485       0.36617699       1.91455714
H        2.41133121      -0.07646080       1.35871521
H        3.45915761      -0.02873455      -0.05226559
H        1.97059338      -1.96170642      -0.26270005
H        3.65120916      -2.51539563      -0.09894131
C        0.96350358      -2.94382370       1.94813136
H        2.77668145      -2.92822262       3.83300251
H        5.08461816      -1.34972632       3.72536961
H        3.46523797      -0.59452647       3.69262601
H        0.37871043      -3.30449597       1.08080154
H        0.56477112      -1.94974974       2.17603065
H        0.69969395      -3.61167679       2.77101016
O        4.54932145      -3.53980467       2.87563214
O        4.42139004      -4.37756238       1.87987014
O        2.87587454      -4.25290953       1.40141153
22
Properties=species:S:1:pos:R:3 energy=-1888.4481626760369 pbc="F F F"
C        4.46440088      -0.65795064       1.77623238
C        3.23236981      -0.62383415       0.86926221
C        2.81492490      -2.03444692       0.45439134
C        2.43136191      -2.99384887       1.58249868
C        3.50045416      -2.64813125       3.05602213
C        4.14299066      -1.27586918       3.14715378
H        5.27508143      -1.21874029       1.26878400
H        4.86619737       0.36430107       1.91350279
H        2.40690854      -0.08390697       1.36648733
H        3.45050265      -0.02980676      -0.04560968
H        1.97334008      -1.96052633      -0.27071075
H        3.65397653      -2.51688448      -0.09634395
C        0.95179831      -2.93473048       1.94226241
H        2.78263232      -2.95041832       3.81958927
H        5.09324222      -1.33426528       3.72991261
H        3.46197927      -0.60010095       3.69413156
H        0.36197983      -3.29471826       1.07684666
H        0.56040184      -1.93675534       2.16312250
H        0.68016000      -3.59531410       2.76803761
O        4.58522464      -3.51390397       2.85192759
O        4.44896626      -4.39603585       1.91313871
O        2.86219439      -4.24835069       1.40775082
22
Properties=species:S:1:pos:R:3 energy=-1888.1618099389361 pbc="F F F"
C        4.46162324      -0.66093988       1.77885862
C        3.22760789      -0.62918596       0.87472680
C        2.81281151      -2.03825499       0.45239906
C        2.41451620      -3.00954050       1.56437643
C        3.52715033      -2.65631601       3.07158067
C        4.14862443      -1.27667767       3.15406325
H        5.27197269      -1.21829865       1.26754073
H        4.86252865       0.36233407       1.91254831
H        2.40263415      -0.09108853       1.37399858
H        3.44215633      -0.03092352      -0.03909170
H        1.97605435      -1.95923197      -0.27876180
H        3.65644331      -2.51844319      -0.09348221
C        0.93952736      -2.92578932       1.93608072
H        2.78956554      -2.97179993       3.80530385
H        5.10142603      -1.31901048       3.73436994
H        3.45882290      -0.60598625       3.69550483
H        0.34502512      -3.28536893       1.07268670
H        0.55572334      -1.92418994       2.15058931
H        0.66123235      -3.57941885       2.76495371
O        4.61981053      -3.48961531       2.82875688
O        4.47815366      -4.41345116       1.94698996
O        2.84767808      -4.24304102       1.41439739
22
Properties=species:S:1:pos:R:3 energy=-1888.0891919353726 pbc="F F F"
C        4.45887238      -0.66398972       1.78143710
C        3.22294997      -0.63439281       0.88004858
C        2.81040193      -2.04177080       0.45034313
C        2.39643468      -3.02415993       1.54594505
C        3.55532654      -2.66469690       3.08774379
C        4.15432695      -1.27765480       3.16076205
H        5.26892272      -1.21789954       1.26642253
H        4.85888553       0.36027302       1.91169693
H        2.39850664      -0.09800330       1.38125048
H        3.43411821      -0.03208699      -0.03271024
H        1.97873979      -1.95782087      -0.28686173
H        3.65859258      -2.52008181      -0.09033422
C        0.92665689      -2.91701376       1.92955230
H        2.79759809      -2.99236657       3.79013365
H        5.10914709      -1.30396352       3.73873953
H        3.45576722      -0.61221279       3.69674111
H        0.32781759      -3.27645189       1.06830118
H        0.55071289      -1.91204973       2.13842257
H        0.64290283      -3.56398862       2.76174793
O        4.65308387      -3.46709127       2.80629748
O        4.50891450      -4.42971986       1.98131736
O        2.83240911      -4.23709554       1.42139346
22
Properties=species:S:1:pos:R:3 energy=-1888.2125663690513 pbc="F F F"
C        4.45614874      -0.66710095       1.78396506
C        3.21839245      -0.63945207       0.88522680
C        2.80767309      -2.04499500       0.44821265
C        2.37718839      -3.03752027       1.52735528
C        3.58491524      -2.67322383       3.10435924
C        4.16009045      -1.27880460       3.16722552
H        5.26593052      -1.21754504       1.26543012
H        4.85526490       0.35811495       1.91095189
H        2.39452463      -0.10464912       1.38824454
H        3.42638785      -0.03329930      -0.02646390
H        1.98139997      -1.95629056      -0.29501903
H        3.66040741      -2.52181038      -0.08687809
C        0.91315306      -2.90841739       1.92264315
H        2.80684692      -3.01211737       3.77406606
H        5.11638291      -1.28912602       3.74301931
H        3.45281057      -0.61881100       3.69783572
H        0.31032849      -3.26797103       1.06366961
H        0.54534773      -1.90033094       2.12661382
H        0.62516330      -3.54902095       2.75840977
O        4.68504943      -3.44648437       2.78472682
O        4.54121101      -4.44475348       2.01601438
O        2.81647095      -4.23062927       1.42878127
22
Properties=species:S:1:pos:R:3 energy=-1888.4577797521868 pbc="F F F"
C        4.45345274      -0.67027437       1.78643974
C        3.21393176      -0.64436115       0.89026070
C        2.80460190      -2.04792823       0.44599672
C        2.35684835      -3.04943466       1.50875787
C        3.61584883      -2.68184671       3.12127480
C        4.16590718      -1.28013110       3.17342900
H        5.26299509      -1.21723724       1.26456423
H        4.85166362       0.35585690       1.91031644
H        2.39068671      -0.11102380       1.39498228
H        3.41896481      -0.03456260      -0.02035124
H        1.98403851      -1.95463855      -0.30324222
H        3.66187090      -2.52363896      -0.08309194
C        0.89898203      -2.90001377       1.91531928
H        2.81742899      -3.03105144       3.75708847
H        5.12311098      -1.27449958       3.74720722
H        3.44995129      -0.62581130       3.69878397
H        0.29252909      -3.25993026       1.05877153
H        0.53960512      -1.88902977       2.11515455
H        0.60800559      -3.53451340       2.75492870
O        4.71571196      -3.42794719       2.76422237
O        4.57500547      -4.45846357       2.05097449
O        2.79994710      -4.22375723       1.43660303
22
Properties=species:S:1:pos:R:3 energy=-1888.7482044430046 pbc="F F F"
C        4.45078479      -0.67351077       1.78885839
C        3.20956430      -0.64911741       0.89514953
C        2.80116528      -2.05057113       0.44368441
C        2.33548561      -3.05971623       1.49030355
C        3.64805975      -2.69051546       3.13833823
C        4.17176940      -1.28163832       3.17934785
H        5.26011540      -1.21697823       1.26382561
H        4.84807854       0.35349588       1.90979381
H        2.38699150      -0.11712516       1.40146518
H        3.41184866      -0.03587903      -0.01437086
H        1.98665899      -1.95286238      -0.31153979
H        3.66296611      -2.52557760      -0.07895389
C        0.88410997      -2.89181647       1.90754669
H        2.82946126      -3.04916790       3.73918828
H        5.12930883      -1.26008583       3.75130120
H        3.44718774      -0.63324412       3.69958118
H        0.27439067      -3.25233348       1.05358644
H        0.53346233      -1.87814244       2.10403628
H        0.59142153      -3.52046355       2.75129422
O        4.74507620      -3.41163227       2.74496157
O        4.61026012      -4.47076167       2.08609114
O        2.78292104      -4.21659444       1.44490096
22
Properties=species:S:1:pos:R:3 energy=-1889.0342874860592 pbc="F F F"
C        4.44814534      -0.67681096       1.79121825
C        3.20528650      -0.65371826       0.89989254
C        2.79734015      -2.05292434       0.44126482
C        2.31317120      -3.06817810       1.47214306
C        3.68148041      -2.69918002       3.15539730
C        4.17766936      -1.28333029       3.18495738
H        5.25729047      -1.21677010       1.26321498
H        4.84450654       0.35102895       1.90938725
H        2.38343760      -0.12295103       1.40769478
H        3.40503896      -0.03725074      -0.00852134
H        1.98926499      -1.95095956      -0.31992027
H        3.66367614      -2.52763633      -0.07444206
C        0.86850302      -2.88383907       1.89929139
H        2.84306069      -3.06646586       3.72035289
H        5.13495394      -1.24588637       3.75529918
H        3.44451825      -0.64113987       3.70022265
H        0.25588448      -3.24518459       1.04809387
H        0.52689659      -1.86766516       2.09325052
H        0.57540298      -3.50686893       2.74749580
O        4.77314691      -3.39769216       2.72712186
O        4.64693722      -4.48155931       2.12125782
O        2.76547626      -4.20925592       1.45371730
22
Properties=species:S:1:pos:R:3 energy=-1889.2919143562997 pbc="F F F"
C        4.44553452      -0.68017315       1.79351752
C        3.20109148      -0.65816358       0.90449041
C        2.79311217      -2.05499542       0.43873583
C        2.29000470      -3.07467791       1.45443727
C        3.71600558      -2.70779282       3.17228611
C        4.18359810      -1.28520883       3.19023792
H        5.25451797      -1.21661256       1.26272573
H        4.84094544       0.34846069       1.90909617
H        2.38001898      -0.12850493       1.41368116
H        3.39852484      -0.03867540      -0.00280088
H        1.99185904      -1.94893319      -0.32838920
H        3.66399004      -2.52982677      -0.06953710
C        0.85214246      -2.87608402       1.89053133
H        2.85831911      -3.08297336       3.70058792
H        5.14003278      -1.23189901       3.75919950
H        3.44193514      -0.64952547       3.70070472
H        0.23699191      -3.23847513       1.04227440
H        0.51988470      -1.85758000       2.08277393
H        0.55991829      -3.49371194       2.74352259
O        4.79997922      -3.38622529       2.71088213
O        4.68498898      -4.49080761       2.15635125
O        2.74769256      -4.20185228       1.46308129
22
Properties=species:S:1:pos:R:3 energy=-1889.5105811501312 pbc="F F F"
C        4.44295103      -0.68358125       1.79575974
C        3.19695391      -0.66246727       0.90895188
C        2.78851578      -2.05683051       0.43614448
C        2.26624545      -3.07932246       1.43740377
C        3.75131923      -2.71632054       3.18876236
C        4.18953998      -1.28726354       3.19519754
H        5.25178838      -1.21649205       1.26231017
H        4.83739849       0.34583813       1.90889866
H        2.37670362      -0.13382237       1.41948245
H        3.39223704      -0.04012572       0.00279448
H        1.99443758      -1.94681755      -0.33693563
H        3.66393036      -2.53216929      -0.06423380
C        0.83509410      -2.86849163       1.88131114
H        2.87518766      -3.09888012       3.68000092
H        5.14458179      -1.21810017       3.76300273
H        3.43939701      -0.65840814       3.70102945
H        0.21775084      -3.23212762       1.03611459
H        0.51240073      -1.84778992       2.07249999
H        0.54480455      -3.48089002       2.73936185
O        4.82591008      -3.37702723       2.69642917
O        4.72431133      -4.49867919       2.19115455
O        2.72962908      -4.19446954       1.47294951
22
Properties=species:S:1:pos:R:3 energy=-1889.6873526366098 pbc="F F F"
C        4.44039301      -0.68701415       1.79795030
C        3.19284207      -0.66664808       0.91328851
C        2.78360244      -2.05848919       0.43355491
C        2.24220828      -3.08230515       1.42127987
C        3.78703208      -2.72473480       3.20455717
C        4.19547703      -1.28947976       3.19985395
H        5.24908962      -1.21639039       1.26190630
H        4.83387079       0.34322301       1.90876538
H        2.37345047      -0.13894992       1.42517348
H        3.38608600      -0.04156572       0.00826944
H        1.99699493      -1.94465771      -0.34554287
H        3.66353126      -2.53468730      -0.05853190
C        0.81745316      -2.86098060       1.87169870
H        2.89356859      -3.11443210       3.65873492
H        5.14865481      -1.20445887       3.76671022
H        3.43685069      -0.66778826       3.70120086
H        0.19821883      -3.22604052       1.02960306
H        0.50441783      -1.83817039       2.06229333
H        0.52985317      -3.46827106       2.73500022
O        4.85137446      -3.36978824       2.68395254
O        4.76478065      -4.50542365       2.22541832
O        2.71133782      -4.18718515       1.48325330
22
Properties=species:S:1:pos:R:3 energy=-1889.824126208695 pbc="F F F"
C        4.43785864      -0.69045076       1.80009462
C        3.18872421      -0.67072478       0.91751185
C        2.77842359      -2.06003106       0.43103129
C        2.21820812      -3.08381944       1.40630290
C        3.82275476      -2.73300719       3.21940163
C        4.20139127      -1.29184282       3.20422490
H        5.24640963      -1.21628941       1.26145214
H        4.83036746       0.34067709       1.90866698
H        2.37021846      -0.14393420       1.43082910
H        3.37998215      -0.04295943       0.01362871
H        1.99952545      -1.94249880      -0.35419421
H        3.66282694      -2.53740420      -0.05243111
C        0.79931487      -2.85346962       1.86176188
H        2.91336409      -3.12987532       3.63693296
H        5.15230570      -1.19094412       3.77032332
H        3.43424306      -0.67766619       3.70122299
H        0.17845346      -3.22011230       1.02272843
H        0.49590915      -1.82859682       2.05201851
H        0.51485554      -3.45572294       2.73042429
O        4.87680740      -3.36419850       2.67364179
O        4.80627328      -4.51129065       2.25889310
O        2.69287075      -4.18007653       1.49392395
22
Properties=species:S:1:pos:R:3 energy=-1889.925787419196 pbc="F F F"
C        4.43534606      -0.69386997       1.80219809
C        3.18456861      -0.67471615       0.92163344
C        2.77303070      -2.06151569       0.42863777
C        2.19455988      -3.08405883       1.39271017
C        3.85809792      -2.74110933       3.23302686
C        4.20726474      -1.29433805       3.20832812
H        5.24373634      -1.21617091       1.26088568
H        4.82689361       0.33826214       1.90857412
H        2.36696653      -0.14882180       1.43652417
H        3.37383590      -0.04427084       0.01887701
H        2.00202346      -1.94038592      -0.36287296
H        3.66185159      -2.54034343      -0.04593117
C        0.78077448      -2.84587737       1.85156856
H        2.93447637      -3.14545580       3.61473808
H        5.15558832      -1.17752492       3.77384338
H        3.43152094      -0.68804232       3.70109989
H        0.15851230      -3.21424143       1.01547934
H        0.48684784      -1.81894466       2.04154009
H        0.49960304      -3.44311354       2.72562068
O        4.90264395      -3.35994816       2.66568648
O        4.84866560      -4.51652988       2.29132943
O        2.67427984      -4.17322115       1.50489277
22
Properties=species:S:1:pos:R:3 energy=-1889.998959276109 pbc="F F F"
C        4.43285345      -0.69725068       1.80426612
C        3.18034352      -0.67864096       0.92566484
C        2.76747520      -2.06300267       0.42643852
C        2.17157846      -3.08321679       1.38073901
C        3.89267218      -2.74901285       3.24516393
C        4.21307945      -1.29695078       3.21218134
H        5.24105769      -1.21601672       1.26014493
H        4.82345437       0.33603992       1.90845746
H        2.36365362      -0.15365933       1.44233353
H        3.36755767      -0.04546398       0.02401904
H        2.00448329      -1.93836419      -0.37156242
H        3.66063939      -2.54352837      -0.03903180
C        0.76192721      -2.83812252       1.84118661
H        2.95680762      -3.16141954       3.59229333
H        5.15855652      -1.16417028       3.77727176
H        3.42863119      -0.69891701       3.70083559
H        0.13845291      -3.20832635       1.00784440
H        0.47720704      -1.80908932       2.03072266
H        0.48388703      -3.43031075       2.72057601
O        4.92931917      -3.35672739       2.66027619
O        4.89183395      -4.52139103       2.32247787
O        2.65561705      -4.16669642       1.51609107
22
Properties=species:S:1:pos:R:3 energy=-1890.0510424531114 pbc="F F F"
C        4.43037908      -0.70057162       1.80630367
C        3.17601750      -0.68251759       0.92961758
C        2.76180854      -2.06455120       0.42449751
C        2.14957638      -3.08148639       1.37062425
C        3.92609074      -2.75668942       3.25554553
C        4.21881741      -1.29966648       3.21580179
H        5.23836170      -1.21580885       1.25916831
H        4.82005470       0.33407164       1.90828791
H        2.36023892      -0.15849320       1.44833152
H        3.36105847      -0.04650319       0.02905957
H        2.00689945      -1.93647884      -0.38024523
H        3.65922423      -2.54698230      -0.03173289
C        0.74286844      -2.83012424       1.83068387
H        2.98026007      -3.17801044       3.56974133
H        5.16126355      -1.15085008       3.78060973
H        3.42552118      -0.71029062       3.70043419
H        0.11833356      -3.20226609       0.99981268
H        0.46696055      -1.79890711       2.01943170
H        0.46750045      -3.41718335       2.71527704
O        4.95726434      -3.35422800       2.65759801
O        4.93565476      -4.52612156       2.35209131
O        2.63693396      -4.16057906       1.52745063
22
Properties=species:S:1:pos:R:3 energy=-1890.0894236888093 pbc="F F F"
C        4.42792876      -0.70380165       1.80828958
C        3.17157625      -0.68634209       0.93350216
C        2.75608108      -2.06619604       0.42286743
C        2.12872158      -3.07903589       1.36244978
C        3.95812046      -2.76411555       3.26399856
C        4.22445993      -1.30247840       3.21917590
H        5.23564224      -1.21554119       1.25791962
H        4.81669136       0.33238514       1.90805278
H        2.35669691      -0.16335881       1.45456254
H        3.35428470      -0.04737234       0.03400696
H        2.00927552      -1.93478276      -0.38886542
H        3.65762193      -2.55071869      -0.02404438
C        0.72370103      -2.82183035       1.82012478
H        3.00473834      -3.19534495       3.54719858
H        5.16372532      -1.13758775       3.78385344
H        3.42216939      -0.72216244       3.69990322
H        0.09825348      -3.19599370       0.99139838
H        0.45612040      -1.78832624       2.00758755
H        0.45032884      -3.40365608       2.70971933
O        4.98668534      -3.35224019       2.65769247
O        4.98000814      -4.53083706       2.38006431
O        2.61825702      -4.15490098       1.53893239
22
Properties=species:S:1:pos:R:3 energy=-1890.1201409003272 pbc="F F F"
C        4.42551993      -0.70689430       1.81016218
C        3.16703207      -0.69007588       0.93732749
C        2.75034149      -2.06793414       0.42158353
C        2.10895799      -3.07599502       1.35606566
C        3.98876635      -2.77127518       3.27049602
C        4.22998714      -1.30539187       3.22224243
H        5.23290223      -1.21522606       1.25640203
H        4.81334831       0.33095652       1.90776469
H        2.35302573      -0.16827438       1.46102454
H        3.34723761      -0.04808556       0.03887514
H        2.01162923      -1.93334072      -0.39730708
H        3.65582031      -2.55473591      -0.01599175
C        0.70453947      -2.81323313       1.80956857
H        3.03015070      -3.21334198       3.52474114
H        5.16589990      -1.12448962       3.78699119
H        3.41860259      -0.73453010       3.69925552
H        0.07837540      -3.18949493       0.98265477
H        0.44475791      -1.77735539       1.99519561
H        0.43240129      -3.38974027       2.70391208
O        5.01743867      -3.35070668       2.66037288
O        5.02477991      -4.53544868       2.40651093
O        2.59957378      -4.14962473       1.55054243
22
Properties=species:S:1:pos:R:3 energy=-1890.147318341974 pbc="F F F"
C        4.42317104      -0.70980177       1.81185631
C        3.16239956      -0.69367736       0.94110232
C        2.74463830      -2.06975919       0.42067952
C        2.09021027      -3.07249025       1.35130180
C        4.01805391      -2.77815292       3.27502345
C        4.23537911      -1.30841327       3.22493601
H        5.23014535      -1.21487734       1.25462206
H        4.81000845       0.32975745       1.90743849
H        2.34922557      -0.17325670       1.46771146
H        3.33992315      -0.04865961       0.04367854
H        2.01397952      -1.93221848      -0.40544918
H        3.65380477      -2.55903099      -0.00760184
C        0.68549925      -2.80432868       1.79907399
H        3.05640574      -3.23190345       3.50244160
H        5.16774041      -1.11166920       3.79001055
H        3.41485166      -0.74739109       3.69850441
H        0.05886753      -3.18276009       0.97363843