22
Properties=species:S:1:pos:R:3 energy=-1888.0891919353726 pbc="F F F"
C        4.45887238      -0.66398972       1.78143710
C        3.22294997      -0.63439281       0.88004858
C        2.81040193      -2.04177080       0.45034313
C        2.39643468      -3.02415993       1.54594505
C        3.55532654      -2.66469690       3.08774379
C        4.15432695      -1.27765480       3.16076205
H        5.26892272      -1.21789954       1.26642253
H        4.85888553       0.36027302       1.91169693
H        2.39850664      -0.09800330       1.38125048
H        3.43411821      -0.03208699      -0.03271024
H        1.97873979      -1.95782087      -0.28686173
H        3.65859258      -2.52008181      -0.09033422
C        0.92665689      -2.91701376       1.92955230
H        2.79759809      -2.99236657       3.79013365
H        5.10914709      -1.30396352       3.73873953
H        3.45576722      -0.61221279       3.69674111
H        0.32781759      -3.27645189       1.06830118
H        0.55071289      -1.91204973       2.13842257
H        0.64290283      -3.56398862       2.76174793
O        4.65308387      -3.46709127       2.80629748
O        4.50891450      -4.42971986       1.98131736
O        2.83240911      -4.23709554       1.42139346
