22
Properties=species:S:1:pos:R:3:momenta:R:3:forces:R:3 pbc="F F F"
C        3.55781104       0.44742804       2.56377449      -1.74591162      -0.42769120       2.09697073      -0.00429568       0.00031431      -0.01070551
C        2.42454302       0.45453410       1.53473226      -0.25318294      -0.23168570      -0.92827673      -0.00083760      -0.00670241      -0.01490498
C        2.77096808      -0.40048629       0.32018201      -1.21461754      -0.07761160      -2.15131574       0.01542213       0.00896900      -0.02126692
C        2.60066630      -1.91210595       0.47227900      -0.74756583       0.02008654      -1.21093375      -0.82975137       0.44844109      -1.63820014
C        3.58765462      -2.10701799       2.39072753       2.11032349      -0.37591857       0.23631694       0.46672328       0.06981327       1.92760724
C        3.71295580      -0.90536609       3.26684655       0.60438630      -0.66818131       1.26669396       0.00438534       0.00707908       0.00098869
H        4.51262750       0.72549212       2.07244498      -0.03434145       0.21186198       0.47365373      -0.01104839      -0.00859642      -0.00876293
H        3.37353824       1.23032199       3.32609106      -0.30649159       0.24178944      -0.00689020       0.01551169       0.01212614       0.00311440
H        1.47761570       0.11580164       1.99678641      -0.08289903       0.45635336       0.14558764       0.00403267      -0.01159820       0.00508902
H        2.23825118       1.49839591       1.20668940      -0.16007554       0.07318994       0.30864521      -0.00102877      -0.01617386      -0.00604797
H        2.14057366      -0.10437920      -0.54522341       0.02980380      -0.01981623      -0.22733645      -0.00702310       0.01534589      -0.01135326
H        3.81243742      -0.19767219      -0.00925002      -0.12240174       0.27339967      -0.77603550       0.01801269      -0.00218481       0.00302349
C        1.21519732      -2.37787200       0.88178828      -0.74910108       1.47218144      -1.04304215       0.01165984      -0.01048007      -0.01151366
H        2.78496435      -2.82011830       2.54705511      -0.15571241       0.02164695      -0.13843140      -0.00105185       0.00207630       0.00043594
H        4.70488636      -0.92950069       3.77447975       0.14252335       0.00682440       0.47703194      -0.00259668       0.00885813       0.01777702
H        2.96485725      -0.98763907       4.08633760       0.18867908       0.03760349      -0.00558923      -0.02141799       0.01209740      -0.02719793
H        0.45002134      -1.86644854       0.28233371       0.30628340       0.28269486      -0.27000095       0.01898442      -0.03082863      -0.00201593
H        0.97467122      -2.19188170       1.93281816       0.05771979      -0.21024033      -0.87329065      -0.01241266       0.01986871      -0.03351429
H        1.10806254      -3.45688456       0.69403251       0.09794745       0.38439673       0.11659012      -0.00317221      -0.00762026       0.01288711
O        4.75686340      -2.52263643       1.88638774       1.26111629      -1.08047662      -0.01345311       0.00733776       0.00771667      -0.00495073
O        4.73095501      -3.61844695       1.36820948       2.05351447       1.31592960       0.02769166       0.46260904      -0.39060475      -0.36218888
O        3.36602943      -2.65182734      -0.13108241      -2.04924297       0.72028433       0.73523865      -0.13004257      -0.12791660       0.18170022
