 Entering Gaussian System, Link 0=g09
 Initial command:
 /cm/shared/apps/Gaussian09/g09/l1.exe "/local/Gau-72232.inp" -scrdir="/local/"
 Entering Link 1 = /cm/shared/apps/Gaussian09/g09/l1.exe PID=     72233.
  
 Copyright (c) 1988,1990,1992,1993,1995,1998,2003,2009,2013,
            Gaussian, Inc.  All Rights Reserved.
  
 This is part of the Gaussian(R) 09 program.  It is based on
 the Gaussian(R) 03 system (copyright 2003, Gaussian, Inc.),
 the Gaussian(R) 98 system (copyright 1998, Gaussian, Inc.),
 the Gaussian(R) 94 system (copyright 1995, Gaussian, Inc.),
 the Gaussian 92(TM) system (copyright 1992, Gaussian, Inc.),
 the Gaussian 90(TM) system (copyright 1990, Gaussian, Inc.),
 the Gaussian 88(TM) system (copyright 1988, Gaussian, Inc.),
 the Gaussian 86(TM) system (copyright 1986, Carnegie Mellon
 University), and the Gaussian 82(TM) system (copyright 1983,
 Carnegie Mellon University). Gaussian is a federally registered
 trademark of Gaussian, Inc.
  
 This software contains proprietary and confidential information,
 including trade secrets, belonging to Gaussian, Inc.
  
 This software is provided under written license and may be
 used, copied, transmitted, or stored only in accord with that
 written license.
  
 The following legend is applicable only to US Government
 contracts under FAR:
  
                    RESTRICTED RIGHTS LEGEND
  
 Use, reproduction and disclosure by the US Government is
 subject to restrictions as set forth in subparagraphs (a)
 and (c) of the Commercial Computer Software - Restricted
 Rights clause in FAR 52.227-19.
  
 Gaussian, Inc.
 340 Quinnipiac St., Bldg. 40, Wallingford CT 06492
  
  
 ---------------------------------------------------------------
 Warning -- This program may not be used in any manner that
 competes with the business of Gaussian, Inc. or will provide
 assistance to any competitor of Gaussian, Inc.  The licensee
 of this program is prohibited from giving any competitor of
 Gaussian, Inc. access to this program.  By using this program,
 the user acknowledges that Gaussian, Inc. is engaged in the
 business of creating and licensing software in the field of
 computational chemistry and represents and warrants to the
 licensee that it is not a competitor of Gaussian, Inc. and that
 it will not use this program in any manner prohibited above.
 ---------------------------------------------------------------
  

 Cite this work as:
 Gaussian 09, Revision D.01,
 M. J. Frisch, G. W. Trucks, H. B. Schlegel, G. E. Scuseria, 
 M. A. Robb, J. R. Cheeseman, G. Scalmani, V. Barone, B. Mennucci, 
 G. A. Petersson, H. Nakatsuji, M. Caricato, X. Li, H. P. Hratchian, 
 A. F. Izmaylov, J. Bloino, G. Zheng, J. L. Sonnenberg, M. Hada, 
 M. Ehara, K. Toyota, R. Fukuda, J. Hasegawa, M. Ishida, T. Nakajima, 
 Y. Honda, O. Kitao, H. Nakai, T. Vreven, J. A. Montgomery, Jr., 
 J. E. Peralta, F. Ogliaro, M. Bearpark, J. J. Heyd, E. Brothers, 
 K. N. Kudin, V. N. Staroverov, T. Keith, R. Kobayashi, J. Normand, 
 K. Raghavachari, A. Rendell, J. C. Burant, S. S. Iyengar, J. Tomasi, 
 M. Cossi, N. Rega, J. M. Millam, M. Klene, J. E. Knox, J. B. Cross, 
 V. Bakken, C. Adamo, J. Jaramillo, R. Gomperts, R. E. Stratmann, 
 O. Yazyev, A. J. Austin, R. Cammi, C. Pomelli, J. W. Ochterski, 
 R. L. Martin, K. Morokuma, V. G. Zakrzewski, G. A. Voth, 
 P. Salvador, J. J. Dannenberg, S. Dapprich, A. D. Daniels, 
 O. Farkas, J. B. Foresman, J. V. Ortiz, J. Cioslowski, 
 and D. J. Fox, Gaussian, Inc., Wallingford CT, 2013.
 
 ******************************************
 Gaussian 09:  ES64L-G09RevD.01 24-Apr-2013
                15-Feb-2021 
 ******************************************
 %nprocshared=1
 Will use up to    1 processors via shared memory.
 ----------------------------------------------------------------------
 #P upm6 scf=qc opt(calcall, ts, noeigentest, cartesian,maxcycle=100) N
 oSymm, guess=mix
 ----------------------------------------------------------------------
 1/5=1,6=100,10=4,11=1,14=-1,18=10,26=1,38=1/1,3;
 2/12=2,15=1,17=6,18=5,29=2,40=1/2;
 3/5=2,16=1,25=1,41=3900000,71=2,116=2,140=1/1,2,3;
 4/13=-1,35=1/1;
 5/5=2,8=3,35=1,38=5/8;
 8/6=4,10=90,11=11/1;
 11/6=1,8=1,9=11,15=111,16=1,31=1/1,2,10;
 10/6=1,31=1/2;
 6/7=2,8=2,9=2,10=2,18=1,28=1/1;
 7/7=1,10=1,25=1,30=1/1,2,3,16;
 1/5=1,6=100,10=4,11=1,14=-1,18=10,26=1/3(3);
 2/15=1,29=1/2;
 7/7=1,8=1,9=1,25=1,30=1,44=-1/16;
 99/12=1/99;
 2/15=1,29=1/2;
 3/5=2,16=1,25=1,41=3900000,71=2,116=2,135=20,140=1/1,2,3;
 4/5=5,16=3,35=1/1;
 5/5=2,8=3,35=1,38=5/8;
 8/6=4,10=90,11=11/1;
 11/6=1,8=1,9=11,15=111,16=1,31=1/1,2,10;
 10/6=1,31=1/2;
 7/7=1,10=1,25=1,30=1/1,2,3,16;
 1/5=1,6=100,10=4,11=1,14=-1,18=10,26=1/3(-8);
 2/15=1,29=1/2;
 6/7=2,8=2,9=2,10=2,18=1,19=2,28=1/1;
 7/7=1,8=1,9=1,25=1,30=1,44=-1/16;
 99/12=1/99;
 Leave Link    1 at Mon Feb 15 21:21:03 2021, MaxMem=           0 cpu:         0.0
 (Enter /cm/shared/apps/Gaussian09/g09/l101.exe)
 ------------------------------
 Gaussian input prepared by ASE
 ------------------------------
 Symbolic Z-matrix:
 Charge =  0 Multiplicity = 1
 C                     1.04005   1.32592   0.59292 
 C                    -0.36457   1.68803   0.09704 
 C                    -0.91363   0.89555  -1.10398 
 C                    -0.11646  -0.31983  -1.55031 
 C                     0.22243  -0.85857   1.49352 
 C                     1.05609   0.3346    1.77065 
 H                     1.65965   0.92938  -0.2454 
 H                     1.56355   2.25003   0.91231 
 H                    -1.08654   1.61036   0.93444 
 H                    -0.36435   2.76364  -0.18188 
 H                    -1.9649    0.61703  -0.8966 
 H                    -0.9619    1.57412  -1.98567 
 C                    -0.84129  -1.62646  -1.59257 
 H                    -0.85387  -0.81907   1.40116 
 H                     2.10905   0.04582   1.9883 
 H                     0.68558   0.83346   2.69438 
 H                    -1.93046  -1.5511   -1.56395 
 H                    -0.53727  -2.28045  -0.74017 
 H                    -0.56193  -2.20521  -2.48661 
 O                     0.89376  -1.98255   1.32482 
 O                     0.22442  -3.00087   1.03373 
 O                     1.04258  -0.22382  -1.89613 
 
 NAtoms=     22 NQM=       22 NQMF=       0 NMMI=      0 NMMIF=      0
                NMic=       0 NMicF=      0.
                    Isotopes and Nuclear Properties:
 (Nuclear quadrupole moments (NQMom) in fm**2, nuclear magnetic moments (NMagM)
  in nuclear magnetons)

  Atom         1           2           3           4           5           6           7           8           9          10
 IAtWgt=          12          12          12          12          12          12           1           1           1           1
 AtmWgt=  12.0000000  12.0000000  12.0000000  12.0000000  12.0000000  12.0000000   1.0078250   1.0078250   1.0078250   1.0078250
 NucSpn=           0           0           0           0           0           0           1           1           1           1
 AtZEff=   0.0000000   0.0000000   0.0000000   0.0000000   0.0000000   0.0000000   0.0000000   0.0000000   0.0000000   0.0000000
 NQMom=    0.0000000   0.0000000   0.0000000   0.0000000   0.0000000   0.0000000   0.0000000   0.0000000   0.0000000   0.0000000
 NMagM=    0.0000000   0.0000000   0.0000000   0.0000000   0.0000000   0.0000000   2.7928460   2.7928460   2.7928460   2.7928460
 AtZNuc=   6.0000000   6.0000000   6.0000000   6.0000000   6.0000000   6.0000000   1.0000000   1.0000000   1.0000000   1.0000000

  Atom        11          12          13          14          15          16          17          18          19          20
 IAtWgt=           1           1          12           1           1           1           1           1           1          16
 AtmWgt=   1.0078250   1.0078250  12.0000000   1.0078250   1.0078250   1.0078250   1.0078250   1.0078250   1.0078250  15.9949146
 NucSpn=           1           1           0           1           1           1           1           1           1           0
 AtZEff=   0.0000000   0.0000000   0.0000000   0.0000000   0.0000000   0.0000000   0.0000000   0.0000000   0.0000000   0.0000000
 NQMom=    0.0000000   0.0000000   0.0000000   0.0000000   0.0000000   0.0000000   0.0000000   0.0000000   0.0000000   0.0000000
 NMagM=    2.7928460   2.7928460   0.0000000   2.7928460   2.7928460   2.7928460   2.7928460   2.7928460   2.7928460   0.0000000
 AtZNuc=   1.0000000   1.0000000   6.0000000   1.0000000   1.0000000   1.0000000   1.0000000   1.0000000   1.0000000   8.0000000

  Atom        21          22
 IAtWgt=          16          16
 AtmWgt=  15.9949146  15.9949146
 NucSpn=           0           0
 AtZEff=   0.0000000   0.0000000
 NQMom=    0.0000000   0.0000000
 NMagM=    0.0000000   0.0000000
 AtZNuc=   8.0000000   8.0000000
 Leave Link  101 at Mon Feb 15 21:21:03 2021, MaxMem=    33554432 cpu:         0.0
 (Enter /cm/shared/apps/Gaussian09/g09/l103.exe)

 GradGradGradGradGradGradGradGradGradGradGradGradGradGradGradGradGradGrad
 Berny optimization.
 Initialization pass.
 No Z-matrix variables, so optimization will use Cartesian coordinates.
 Trust Radius=3.00D-01 FncErr=1.00D-07 GrdErr=1.00D-07
 Number of steps in this run=    100 maximum allowed number of steps=    132.
 Search for a saddle point of order  1.
 GradGradGradGradGradGradGradGradGradGradGradGradGradGradGradGradGradGrad

 Leave Link  103 at Mon Feb 15 21:21:03 2021, MaxMem=    33554432 cpu:         0.0
 (Enter /cm/shared/apps/Gaussian09/g09/l202.exe)
 ---------------------------------------------------------------------------------------------------
                            Z-MATRIX (ANGSTROMS AND DEGREES)
   CD    Cent   Atom    N1       Length/X        N2       Alpha/Y        N3        Beta/Z          J
 ---------------------------------------------------------------------------------------------------
      1      1  C        0   1.040049          1.325920          0.592924
      2      2  C        0  -0.364568          1.688030          0.097038
      3      3  C        0  -0.913628          0.895545         -1.103978
      4      4  C        0  -0.116456         -0.319835         -1.550307
      5      5  C        0   0.222428         -0.858572          1.493522
      6      6  C        0   1.056093          0.334604          1.770652
      7      7  H        0   1.659651          0.929378         -0.245399
      8      8  H        0   1.563551          2.250030          0.912313
      9      9  H        0  -1.086538          1.610357          0.934437
     10     10  H        0  -0.364354          2.763635         -0.181879
     11     11  H        0  -1.964897          0.617031         -0.896603
     12     12  H        0  -0.961900          1.574121         -1.985670
     13     13  C        0  -0.841288         -1.626456         -1.592570
     14     14  H        0  -0.853873         -0.819067          1.401157
     15     15  H        0   2.109051          0.045823          1.988296
     16     16  H        0   0.685576          0.833460          2.694378
     17     17  H        0  -1.930456         -1.551097         -1.563948
     18     18  H        0  -0.537274         -2.280454         -0.740171
     19     19  H        0  -0.561932         -2.205208         -2.486615
     20     20  O        0   0.893763         -1.982550          1.324822
     21     21  O        0   0.224419         -3.000874          1.033730
     22     22  O        0   1.042581         -0.223822         -1.896130
 ---------------------------------------------------------------------------------------------------
                         Z-Matrix orientation:                         
 ---------------------------------------------------------------------
 Center     Atomic      Atomic             Coordinates (Angstroms)
 Number     Number       Type             X           Y           Z
 ---------------------------------------------------------------------
      1          6           0        1.040049    1.325920    0.592924
      2          6           0       -0.364568    1.688030    0.097038
      3          6           0       -0.913628    0.895545   -1.103978
      4          6           0       -0.116456   -0.319835   -1.550307
      5          6           0        0.222428   -0.858572    1.493522
      6          6           0        1.056093    0.334604    1.770652
      7          1           0        1.659651    0.929378   -0.245399
      8          1           0        1.563551    2.250030    0.912313
      9          1           0       -1.086538    1.610357    0.934437
     10          1           0       -0.364354    2.763635   -0.181879
     11          1           0       -1.964897    0.617031   -0.896603
     12          1           0       -0.961900    1.574121   -1.985670
     13          6           0       -0.841288   -1.626456   -1.592570
     14          1           0       -0.853873   -0.819067    1.401157
     15          1           0        2.109051    0.045823    1.988296
     16          1           0        0.685576    0.833460    2.694378
     17          1           0       -1.930456   -1.551097   -1.563948
     18          1           0       -0.537274   -2.280454   -0.740171
     19          1           0       -0.561932   -2.205208   -2.486615
     20          8           0        0.893763   -1.982550    1.324822
     21          8           0        0.224419   -3.000874    1.033730
     22          8           0        1.042581   -0.223822   -1.896130
 ---------------------------------------------------------------------
                    Distance matrix (angstroms):
                    1          2          3          4          5
     1  C    0.000000
     2  C    1.532963   0.000000
     3  C    2.623271   1.540110   0.000000
     4  C    2.939295   2.608990   1.520474   0.000000
     5  C    2.500316   2.963092   3.333850   3.109659   0.000000
     6  C    1.539483   2.578958   3.529583   3.582169   1.481710
     7  H    1.115319   2.188671   2.712945   2.533353   2.878579
     8  H    1.109074   2.167525   3.469362   3.935877   3.435086
     9  H    2.172535   1.108381   2.167023   3.292514   2.849838
    10  H    2.153995   1.111180   2.154467   3.382578   4.033815
    11  H    3.427961   2.166890   1.107132   2.172966   3.560126
    12  H    3.273920   2.169666   1.113632   2.119288   4.407426
    13  C    4.127025   3.750714   2.569911   1.494800   3.353372
    14  H    2.973407   2.868045   3.036308   3.082882   1.080980
    15  H    2.174506   3.520297   4.406900   4.196225   2.149901
    16  H    2.187299   2.929039   4.121749   4.471096   2.125919
    17  H    4.664035   3.962679   2.689158   2.192439   3.802976
    18  H    4.155842   4.059509   3.218846   2.162739   2.754683
    19  H    4.951643   4.676699   3.413216   2.151686   4.274358
    20  O    3.391614   4.069891   4.177220   3.471532   1.320030
    21  O    4.425009   4.817688   4.587704   3.739173   2.191089
    22  O    2.932080   3.099672   2.388983   1.213334   3.544756
                    6          7          8          9         10
     6  C    0.000000
     7  H    2.186892   0.000000
     8  H    2.159425   1.758879   0.000000
     9  H    2.630147   3.065501   2.726287   0.000000
    10  H    3.424944   2.732240   2.275493   1.760046   0.000000
    11  H    4.039851   3.695806   4.288218   2.260734   2.771367
    12  H    4.440569   3.211972   3.902956   2.922990   2.241800
    13  C    4.330944   3.821237   5.204310   4.113741   4.635776
    14  H    2.261737   3.476494   3.937292   2.484766   3.947327
    15  H    1.113320   2.443772   2.512735   3.710818   4.267774
    16  H    1.113288   3.098437   2.439931   2.615597   3.619500
    17  H    4.857458   4.558531   5.726127   4.116906   4.793715
    18  H    3.959997   3.921008   5.260177   4.271348   5.077837
    19  H    5.214688   4.447934   5.993291   5.151441   5.480899
    20  O    2.365231   3.395807   4.305057   4.121040   5.136077
    21  O    3.515700   4.375265   5.420333   4.794988   5.920635
    22  O    3.709085   2.106077   3.778718   3.988667   3.720621
                   11         12         13         14         15
    11  H    0.000000
    12  H    1.762978   0.000000
    13  C    2.603863   3.226882   0.000000
    14  H    2.928558   4.148447   3.100716   0.000000
    15  H    5.024537   5.249651   4.931898   3.141924   0.000000
    16  H    4.468444   5.016533   5.173048   2.602531   1.773472
    17  H    2.268770   3.298930   1.092147   3.238325   5.611257
    18  H    3.233883   4.072999   1.116568   2.611737   4.456358
    19  H    3.530083   3.833308   1.101049   4.137800   5.676805
    20  O    4.456960   5.201226   3.412973   2.100894   2.455895
    21  O    4.648498   5.608449   3.149954   2.461300   3.707478
    22  O    3.278874   2.694171   2.368226   3.850060   4.037181
                   16         17         18         19         20
    16  H    0.000000
    17  H    5.537425   0.000000
    18  H    4.794575   1.775254   0.000000
    19  H    6.134531   1.775396   1.748238   0.000000
    20  O    3.138302   4.062925   2.529982   4.086034   0.000000
    21  O    4.203871   3.673319   2.060559   3.693814   1.252892
    22  O    4.724199   3.272759   2.839352   2.617065   3.672847
                   21         22
    21  O    0.000000
    22  O    4.118918   0.000000
 Symmetry turned off by external request.
 Stoichiometry    C7H12O3
 Framework group  C1[X(C7H12O3)]
 Deg. of freedom    60
 Full point group                 C1      NOp   1
 Rotational constants (GHZ):      1.5173321      1.1905209      0.8164301
 Leave Link  202 at Mon Feb 15 21:21:03 2021, MaxMem=    33554432 cpu:         0.0
 (Enter /cm/shared/apps/Gaussian09/g09/l301.exe)
 Standard basis: VSTO-6G (5D, 7F)
 Ernie: Thresh=  0.10000D-02 Tol=  0.10000D-05 Strict=F.
  NNHCO=     0 NNPyr=     0 NCTC=     0               EPep=         0.000000000
    EC=       273.917448892  ECS=         4.260864367   EG=         0.366866138
   EHC=         0.001291795  EAt=       -66.250074573  AtH=         3.187411664
 EPDDG=         0.000000000  ECC=       278.546471192 EAtT=        69.437486237
    52 basis functions,   312 primitive gaussians,    52 cartesian basis functions
    29 alpha electrons       29 beta electrons
       nuclear repulsion energy       347.9839574296 Hartrees.
 IExCor=    0 DFT=F Ex=HF Corr=None ExCW=0 ScaHFX=  1.000000
 ScaDFX=  1.000000  1.000000  1.000000  1.000000 ScalE2=  1.000000  1.000000
 IRadAn=      0 IRanWt=     -1 IRanGd=            0 ICorTp=0 IEmpDi=  4
 Integral buffers will be    131072 words long.
 Regular integral format.
 Two-electron integral symmetry is turned off.
 Leave Link  301 at Mon Feb 15 21:21:03 2021, MaxMem=    33554432 cpu:         0.0
 (Enter /cm/shared/apps/Gaussian09/g09/l302.exe)
 Do NDO integrals.
 NPDir=0 NMtPBC=     1 NCelOv=     1 NCel=       1 NClECP=     1 NCelD=      1
         NCelK=      1 NCelE2=     1 NClLst=     1 CellRange=     0.0.
 One-electron integrals computed using PRISM.
 NBasis=    52 RedAO= F EigKep=  0.00D+00  NBF=    52
 NBsUse=    52 1.00D-04 EigRej=  0.00D+00 NBFU=    52
 Leave Link  302 at Mon Feb 15 21:21:03 2021, MaxMem=    33554432 cpu:         0.1
 (Enter /cm/shared/apps/Gaussian09/g09/l303.exe)
 DipDrv:  MaxL=1.
 Leave Link  303 at Mon Feb 15 21:21:03 2021, MaxMem=    33554432 cpu:         0.0
 (Enter /cm/shared/apps/Gaussian09/g09/l401.exe)
 Simple Huckel Guess.
 JPrj=0 DoOrth=F DoCkMO=T.
 Mixing orbitals, IMix= 1 IMixAn=  0 NRI=1 NE=   29 Coef=  7.07106781D-01  7.07106781D-01
 Mixing orbitals, IMix= 1 IMixAn=  0 NRI=1 NE=   29 Coef= -7.07106781D-01  7.07106781D-01
 Initial guess <Sx>= 0.0000 <Sy>= 0.0000 <Sz>= 0.0000 <S**2>= 1.0000 S= 0.6180
 Leave Link  401 at Mon Feb 15 21:21:03 2021, MaxMem=    33554432 cpu:         0.0
 (Enter /cm/shared/apps/Gaussian09/g09/l508.exe)
 Direct SCF.
 Tight linear equation convergence will be used.
 UPM6 wavefunction.
 Quadratic Convergence SCF Method.
 Line search only if initial step raises energy.
 Two-electron integral symmetry not used.
 ReadGW:  IGet=1 IStart=       59293 Next=       59293 LGW=           0.
 Keep J ints in memory in canonical form, NReq=905730.
 FoFCou: FMM=F IPFlag=           0 FMFlag=           0 FMFlg1=           0
         NFxFlg=           0 DoJE=F BraDBF=F KetDBF=F FulRan=T
         wScrn=  0.000000 ICntrl=     600 IOpCl=  2 I1Cent=           0 NGrid=           0
         NMat0=    1 NMatS0=    112 NMatT0=    0 NMatD0=    1 NMtDS0=    0 NMtDT0=    0
 Symmetry not used in FoFCou.
 Iteration   1 EE= 0.679087741926992                                    Grad=5.418D-01 Max rot=    6.6733 deg.
 Gradient too large for Newton-Raphson -- use scaled steepest descent instead.
 Alpha Gap=     0.186 HL deriv= 6.02D-01
  Beta Gap=     0.167 HL deriv= 6.97D-01
     ILin= 1 X=0.000D+00 Y= 6.790877419270D-01 DE= 0.00D+00 F= -1.08D+00
     ILin= 2 X=3.000D-01 Y= 3.978199884809D-01 DE=-2.81D-01 F= -7.90D-01
     ILin= 3 X=4.000D-01 Y= 3.237088683924D-01 DE=-3.55D-01 F= -6.92D-01
     ILin= 4 X=6.000D-01 Y= 2.043313982872D-01 DE=-4.75D-01 F= -5.04D-01
     ILin= 5 X=8.000D-01 Y= 1.215852896937D-01 DE=-5.58D-01 F= -3.25D-01
     ILin= 6 X=1.200D+00 Y= 6.423297642675D-02 DE=-6.15D-01 F=  4.66D-02
     Accept linear search using points  5 and  6.
     An  expanding polynomial of degree  6 produced  1.0237
 Iteration   2 EE= 0.712302201279158E-01 Delta-E=       -0.607857521799 Grad=2.132D-01 Max rot=    1.6646 deg.
 Gradient too large for Newton-Raphson -- use scaled steepest descent instead.
 Alpha Gap=     0.303 HL deriv= 5.25D-02
  Beta Gap=     0.311 HL deriv= 1.05D-02
     ILin= 1 X=0.000D+00 Y= 7.123022012792D-02 DE= 0.00D+00 F= -1.30D-01
     ILin= 2 X=6.000D-01 Y= 7.467927723724D-03 DE=-6.38D-02 F= -8.20D-02
     ILin= 3 X=9.000D-01 Y=-1.328797547762D-02 DE=-8.45D-02 F= -5.62D-02
     ILin= 4 X=1.400D+00 Y=-3.005989537030D-02 DE=-1.01D-01 F= -1.04D-02
     ILin= 5 X=2.300D+00 Y= 2.599741434892D-04 DE=-7.10D-02 F=  7.90D-02
     An  expanding polynomial of degree  5 produced  1.5091
     Minimum is close to point  4 DX=  1.09D-01 DF= -5.68D-04 DXR=  7.23D-02 DFR=  5.61D-03 which will be used.
 Iteration   3 EE=-0.300598953703002E-01 Delta-E=       -0.101290115498 Grad=6.082D-02 Max rot=    0.9533 deg.
 Gradient too large for Newton-Raphson -- use scaled steepest descent instead.
 Alpha Gap=     0.341 HL deriv= 2.04D-04
  Beta Gap=     0.359 HL deriv= 1.24D-02
     ILin= 1 X=0.000D+00 Y=-3.005989537030D-02 DE= 0.00D+00 F= -1.26D-02
     ILin= 2 X=1.200D+00 Y=-4.090533724195D-02 DE=-1.08D-02 F= -5.46D-03
     Reject lnstep minimum 1.447D+00 FVal=-4.150113244750D-02 Lims=  0.00D+00  1.20D+00
     ILin= 3 X=2.200D+00 Y=-4.337380840582D-02 DE=-1.33D-02 F=  5.24D-04
     Accept linear search using points  2 and  3.
     An  expanding polynomial of degree  3 produced  2.1125
     Minimum is close to point  3 DX= -8.75D-02 DF= -2.29D-05 DXR=  4.14D-02 DFR=  1.72D-03 which will be used.
 Iteration   4 EE=-0.433738084058177E-01 Delta-E=       -0.013313913036 Grad=4.853D-02 Max rot=    0.4849 deg.
 Gradient too large for Newton-Raphson -- use scaled steepest descent instead.
 Alpha Gap=     0.341 HL deriv= 1.09D-02
  Beta Gap=     0.364 HL deriv= 1.17D-02
     ILin= 1 X=0.000D+00 Y=-4.337380840582D-02 DE= 0.00D+00 F= -6.37D-03
     ILin= 2 X=1.800D+00 Y=-4.669637631855D-02 DE=-3.32D-03 F=  2.69D-03
     Accept linear search using points  1 and  2.
     An  expanding polynomial of degree  2 produced  1.5238
 Iteration   5 EE=-0.472463639095508E-01 Delta-E=       -0.003872555504 Grad=3.160D-02 Max rot=    0.4432 deg.
 Gradient too large for Newton-Raphson -- use scaled steepest descent instead.
 Alpha Gap=     0.348 HL deriv= 3.65D-03
  Beta Gap=     0.368 HL deriv= 5.59D-03
     ILin= 1 X=0.000D+00 Y=-4.724636390955D-02 DE= 0.00D+00 F= -2.90D-03
     ILin= 2 X=1.800D+00 Y=-4.902755909404D-02 DE=-1.78D-03 F=  9.33D-04
     Accept linear search using points  1 and  2.
     An  expanding polynomial of degree  2 produced  1.6124
 Iteration   6 EE=-0.491648039650840E-01 Delta-E=       -0.001918440056 Grad=2.495D-02 Max rot=    0.3717 deg.
 Gradient too large for Newton-Raphson -- use scaled steepest descent instead.
 Alpha Gap=     0.347 HL deriv= 3.81D-03
  Beta Gap=     0.371 HL deriv= 2.18D-03
     ILin= 1 X=0.000D+00 Y=-4.916480396508D-02 DE= 0.00D+00 F= -1.85D-03
     ILin= 2 X=1.600D+00 Y=-5.035327960462D-02 DE=-1.19D-03 F=  3.69D-04
     Accept linear search using points  1 and  2.
     An  expanding polynomial of degree  2 produced  1.4867
     Minimum is close to point  2 DX= -1.13D-01 DF= -1.28D-05 DXR=  7.62D-02 DFR=  1.08D-02 which will be used.
 Iteration   7 EE=-0.503532796046215E-01 Delta-E=       -0.001188475640 Grad=2.069D-02 Max rot=    0.3634 deg.
 Gradient too large for Newton-Raphson -- use scaled steepest descent instead.
 Alpha Gap=     0.351 HL deriv= 1.84D-04
  Beta Gap=     0.372 HL deriv= 1.41D-03
     ILin= 1 X=0.000D+00 Y=-5.035327960462D-02 DE= 0.00D+00 F= -1.29D-03
     ILin= 2 X=1.500D+00 Y=-5.116028936663D-02 DE=-8.07D-04 F=  2.14D-04
     Accept linear search using points  1 and  2.
     An  expanding polynomial of degree  2 produced  1.4026
     Minimum is close to point  2 DX= -9.74D-02 DF= -6.82D-06 DXR=  6.95D-02 DFR=  8.45D-03 which will be used.
 Iteration   8 EE=-0.511602893666350E-01 Delta-E=       -0.000807009762 Grad=1.625D-02 Max rot=    0.2528 deg.
 Gradient too large for Newton-Raphson -- use scaled steepest descent instead.
 Alpha Gap=     0.351 HL deriv= 1.44D-03
  Beta Gap=     0.375 HL deriv= 5.33D-04
     ILin= 1 X=0.000D+00 Y=-5.116028936663D-02 DE= 0.00D+00 F= -8.12D-04
     ILin= 2 X=1.400D+00 Y=-5.170063673233D-02 DE=-5.40D-04 F=  4.08D-05
     Accept linear search using points  1 and  2.
     An  expanding polynomial of degree  2 produced  1.3705
     Minimum is close to point  2 DX= -2.95D-02 DF= -4.28D-07 DXR=  2.15D-02 DFR=  7.91D-04 which will be used.
 Iteration   9 EE=-0.517006367323347E-01 Delta-E=       -0.000540347366 Grad=1.182D-02 Max rot=    0.2590 deg.
 Gradient too large for Newton-Raphson -- use scaled steepest descent instead.
 Alpha Gap=     0.353 HL deriv= 3.31D-04
  Beta Gap=     0.376 HL deriv= 3.18D-04
     ILin= 1 X=0.000D+00 Y=-5.170063673233D-02 DE= 0.00D+00 F= -4.65D-04
     ILin= 2 X=1.400D+00 Y=-5.205536661742D-02 DE=-3.55D-04 F= -4.09D-05
     Reject lnstep minimum 1.445D+00 FVal=-5.205603509793D-02 Lims=  0.00D+00  1.40D+00
     ILin= 3 X=2.800D+00 Y=-5.181259797808D-02 DE=-1.12D-04 F=  3.89D-04
     An  expanding polynomial of degree  3 produced  1.5312
     Minimum is close to point  2 DX=  1.31D-01 DF= -2.62D-06 DXR=  8.57D-02 DFR=  7.39D-03 which will be used.
 Iteration  10 EE=-0.520553666174237E-01 Delta-E=       -0.000354729885 Grad=9.060D-03 Max rot=    0.1841 deg.
 QCNR:  CnvC1=3.65D-09 CnvC2=3.65D-08
 LinEq1:  Iter=  0 NonCon=     1 RMS=4.69D-04 Max=9.22D-03 NDo=     1
 AX will form     1 AO Fock derivatives at one time.
 LinEq1:  Iter=  1 NonCon=     1 RMS=1.21D-04 Max=1.65D-03 NDo=     1
 LinEq1:  Iter=  2 NonCon=     1 RMS=1.29D-05 Max=2.69D-04 NDo=     1
 LinEq1:  Iter=  3 NonCon=     1 RMS=3.71D-06 Max=7.08D-05 NDo=     1
 LinEq1:  Iter=  4 NonCon=     1 RMS=8.77D-07 Max=1.48D-05 NDo=     1
 LinEq1:  Iter=  5 NonCon=     1 RMS=2.10D-07 Max=3.33D-06 NDo=     1
 LinEq1:  Iter=  6 NonCon=     1 RMS=3.91D-08 Max=4.34D-07 NDo=     1
 LinEq1:  Iter=  7 NonCon=     1 RMS=8.22D-09 Max=1.02D-07 NDo=     1
 LinEq1:  Iter=  8 NonCon=     0 RMS=1.66D-09 Max=1.85D-08 NDo=     1
 Linear equations converged to 3.652D-09 3.652D-08 after     8 iterations.
 Angle between quadratic step and gradient=  48.61 degrees.
     ILin= 1 X=0.000D+00 Y=-5.205536661742D-02 DE= 0.00D+00 F= -1.67D-03
     ILin= 2 X=1.000D+00 Y=-5.273438411206D-02 DE=-6.79D-04 F=  4.70D-04
     Accept linear search using points  1 and  2.
     An  expanding polynomial of degree  2 produced  0.8150
 Iteration  11 EE=-0.527773566700489E-01 Delta-E=       -0.000721990053 Grad=1.604D-03 Max rot=    0.0279 deg.
 QCNR:  CnvC1=3.65D-09 CnvC2=3.65D-08
 LinEq1:  Iter=  0 NonCon=     1 RMS=7.07D-05 Max=1.41D-03 NDo=     1
 LinEq1:  Iter=  1 NonCon=     1 RMS=1.89D-05 Max=3.33D-04 NDo=     1
 LinEq1:  Iter=  2 NonCon=     1 RMS=4.16D-06 Max=7.97D-05 NDo=     1
 LinEq1:  Iter=  3 NonCon=     1 RMS=7.62D-07 Max=1.25D-05 NDo=     1
 LinEq1:  Iter=  4 NonCon=     1 RMS=1.66D-07 Max=1.84D-06 NDo=     1
 LinEq1:  Iter=  5 NonCon=     1 RMS=3.84D-08 Max=5.09D-07 NDo=     1
 LinEq1:  Iter=  6 NonCon=     1 RMS=6.99D-09 Max=8.51D-08 NDo=     1
 LinEq1:  Iter=  7 NonCon=     0 RMS=1.62D-09 Max=2.51D-08 NDo=     1
 Linear equations converged to 3.652D-09 3.652D-08 after     7 iterations.
 Angle between quadratic step and gradient=  53.76 degrees.
     ILin= 1 X=0.000D+00 Y=-5.277735667005D-02 DE= 0.00D+00 F= -2.14D-05
     ILin= 2 X=1.000D+00 Y=-5.278811017939D-02 DE=-1.08D-05 F= -1.06D-07
     Reject lnstep minimum 1.005D+00 FVal=-5.278811044523D-02 Lims=  0.00D+00  1.00D+00
     ILin= 3 X=2.000D+00 Y=-5.277763662565D-02 DE=-2.80D-07 F=  2.10D-05
     An  expanding polynomial of degree  3 produced  1.0066
     Minimum is close to point  2 DX=  6.59D-03 DF= -4.62D-10 DXR=  6.55D-03 DFR=  4.29D-05 which will be used.
 Iteration  12 EE=-0.527881101793923E-01 Delta-E=       -0.000010753509 Grad=1.436D-05 Max rot=    0.0003 deg.
 QCNR:  CnvC1=1.44D-10 CnvC2=1.44D-09
 LinEq1:  Iter=  0 NonCon=     1 RMS=6.37D-07 Max=9.71D-06 NDo=     1
 LinEq1:  Iter=  1 NonCon=     1 RMS=1.76D-07 Max=2.22D-06 NDo=     1
 LinEq1:  Iter=  2 NonCon=     1 RMS=4.11D-08 Max=4.43D-07 NDo=     1
 LinEq1:  Iter=  3 NonCon=     1 RMS=8.83D-09 Max=1.33D-07 NDo=     1
 LinEq1:  Iter=  4 NonCon=     1 RMS=1.94D-09 Max=2.49D-08 NDo=     1
 LinEq1:  Iter=  5 NonCon=     1 RMS=3.81D-10 Max=5.71D-09 NDo=     1
 LinEq1:  Iter=  6 NonCon=     0 RMS=8.22D-11 Max=8.89D-10 NDo=     1
 Linear equations converged to 1.436D-10 1.436D-09 after     6 iterations.
 Angle between quadratic step and gradient=  51.21 degrees.
     ILin= 1 X=0.000D+00 Y=-5.278811017939D-02 DE= 0.00D+00 F= -1.97D-09
     ILin= 2 X=1.000D+00 Y=-5.278811116517D-02 DE=-9.86D-10
 Iteration  13 EE=-0.527881111651709E-01 Delta-E=       -0.000000000986 Grad=3.275D-07 Max rot=    0.0000 deg.
 Rotation gradient small -- convergence achieved.
 SCF Done:  E(UPM6) = -0.527881111652E-01 a.u. after   13 cycles
            Convg  =    0.3275D-06                    48 Fock formations.
              S**2 =  0.5380                  -V/T =  0.9985
 <Sx>= 0.0000 <Sy>= 0.0000 <Sz>= 0.0000 <S**2>= 0.5380 S= 0.3877
 <L.S>= 0.000000000000E+00
 Annihilation of the first spin contaminant:
 S**2 before annihilation     0.5380,   after     0.0269
 Leave Link  508 at Mon Feb 15 21:21:03 2021, MaxMem=    33554432 cpu:         0.1
 (Enter /cm/shared/apps/Gaussian09/g09/l801.exe)
 Range of M.O.s used for correlation:     1    52
 NBasis=    52 NAE=    29 NBE=    29 NFC=     0 NFV=     0
 NROrb=     52 NOA=    29 NOB=    29 NVA=    23 NVB=    23
 Leave Link  801 at Mon Feb 15 21:21:03 2021, MaxMem=    33554432 cpu:         0.0
 (Enter /cm/shared/apps/Gaussian09/g09/l1101.exe)
 Using compressed storage, NAtomX=    22.
 Will process     23 centers per pass.
 Leave Link 1101 at Mon Feb 15 21:21:04 2021, MaxMem=    33554432 cpu:         0.0
 (Enter /cm/shared/apps/Gaussian09/g09/l1102.exe)
 Symmetrizing basis deriv contribution to polar:
 IMax=3 JMax=2 DiffMx= 0.00D+00
 Leave Link 1102 at Mon Feb 15 21:21:04 2021, MaxMem=    33554432 cpu:         0.0
 (Enter /cm/shared/apps/Gaussian09/g09/l1110.exe)
 Forming Gx(P) for the SCF density, NAtomX=    22.
 Integral derivatives from FoFJK, PRISM(SPDF).
 Do as many integral derivatives as possible in FoFJK.
 G2DrvN: MDV=      33495261.
 G2DrvN: will do    23 centers at a time, making    1 passes.
 Calling FoFCou, ICntrl=  3107 FMM=F I1Cent=   0 AccDes= 0.00D+00.
 FoFJK:  IHMeth=40 ICntrl=    3107 DoSepK=F KAlg= 0 I1Cent=   0 FoldK=F
 IRaf=         0 NMat=   1 IRICut=       1 DoRegI=T DoRafI=F ISym2E= 0.
 FoFCou: FMM=F IPFlag=           0 FMFlag=      100000 FMFlg1=           0
         NFxFlg=           0 DoJE=F BraDBF=F KetDBF=F FulRan=T
         wScrn=  0.000000 ICntrl=    3107 IOpCl=  1 I1Cent=           0 NGrid=           0
         NMat0=    1 NMatS0=      1 NMatT0=    0 NMatD0=    1 NMtDS0=    0 NMtDT0=    0
 Symmetry not used in FoFCou.
 End of G2Drv F.D. properties file   721 does not exist.
 End of G2Drv F.D. properties file   722 does not exist.
 End of G2Drv F.D. properties file   788 does not exist.
 Leave Link 1110 at Mon Feb 15 21:21:04 2021, MaxMem=    33554432 cpu:         0.0
 (Enter /cm/shared/apps/Gaussian09/g09/l1002.exe)
 Minotr:  UHF open shell wavefunction.
          IDoAtm=1111111111111111111111
          Direct CPHF calculation.
          Differentiating once with respect to electric field.
                with respect to dipole field.
          Differentiating once with respect to nuclear coordinates.
          Electric field/nuclear overlap derivatives assumed to be zero.
          Requested convergence is 1.0D-08 RMS, and 1.0D-07 maximum.
          NewPWx=T KeepS1=F KeepF1=F KeepIn=T MapXYZ=F SortEE=F KeepMc=T.
          MDV=      33495213 using IRadAn=       2.
 Keep J ints in memory in canonical form, NReq=888555.
 FoFCou: FMM=F IPFlag=           0 FMFlag=           0 FMFlg1=           0
         NFxFlg=           0 DoJE=F BraDBF=F KetDBF=F FulRan=T
         wScrn=  0.000000 ICntrl=     600 IOpCl=  2 I1Cent=           0 NGrid=           0
         NMat0=    1 NMatS0=    112 NMatT0=    0 NMatD0=    1 NMtDS0=    0 NMtDT0=    0
 Symmetry not used in FoFCou.
          Solving linear equations separately, MaxMat=       0.
          There are    69 degrees of freedom in the 1st order CPHF.  IDoFFX=5 NUNeed=    69.
 LinEq1:  Iter=  0 NonCon=    69 RMS=2.18D-01 Max=4.45D+00 NDo=    69
 AX will form    69 AO Fock derivatives at one time.
 LinEq1:  Iter=  1 NonCon=    69 RMS=3.93D-02 Max=5.52D-01 NDo=    69
 LinEq1:  Iter=  2 NonCon=    69 RMS=1.28D-02 Max=2.99D-01 NDo=    69
 LinEq1:  Iter=  3 NonCon=    69 RMS=2.38D-03 Max=3.10D-02 NDo=    69
 LinEq1:  Iter=  4 NonCon=    69 RMS=3.67D-04 Max=3.86D-03 NDo=    69
 LinEq1:  Iter=  5 NonCon=    69 RMS=7.65D-05 Max=7.40D-04 NDo=    69
 LinEq1:  Iter=  6 NonCon=    69 RMS=1.71D-05 Max=3.21D-04 NDo=    69
 LinEq1:  Iter=  7 NonCon=    61 RMS=4.13D-06 Max=8.63D-05 NDo=    69
 LinEq1:  Iter=  8 NonCon=    21 RMS=9.57D-07 Max=1.35D-05 NDo=    69
 LinEq1:  Iter=  9 NonCon=     5 RMS=2.15D-07 Max=2.71D-06 NDo=    69
 LinEq1:  Iter= 10 NonCon=     3 RMS=3.99D-08 Max=3.71D-07 NDo=    69
 LinEq1:  Iter= 11 NonCon=     0 RMS=6.51D-09 Max=6.30D-08 NDo=    69
 Linear equations converged to 1.000D-08 1.000D-07 after    11 iterations.
 FullF1:  Do perturbations    1 to     3.
 Isotropic polarizability for W=    0.000000       67.62 Bohr**3.
 End of Minotr F.D. properties file   721 does not exist.
 End of Minotr F.D. properties file   722 does not exist.
 End of Minotr F.D. properties file   788 does not exist.
 Leave Link 1002 at Mon Feb 15 21:21:04 2021, MaxMem=    33554432 cpu:         0.4
 (Enter /cm/shared/apps/Gaussian09/g09/l601.exe)
 Copying SCF densities to generalized density rwf, IOpCl= 1 IROHF=0.

 **********************************************************************

            Population analysis using the SCF density.

 **********************************************************************

 Alpha  occ. eigenvalues --   -1.22100  -1.16483  -1.07936  -1.03138  -0.99151
 Alpha  occ. eigenvalues --   -0.95449  -0.87749  -0.82559  -0.75965  -0.70255
 Alpha  occ. eigenvalues --   -0.68758  -0.62984  -0.60522  -0.59427  -0.58501
 Alpha  occ. eigenvalues --   -0.57527  -0.55163  -0.54331  -0.52114  -0.50278
 Alpha  occ. eigenvalues --   -0.49320  -0.48818  -0.47219  -0.45410  -0.44765
 Alpha  occ. eigenvalues --   -0.43640  -0.37084  -0.36078  -0.34668
 Alpha virt. eigenvalues --   -0.01728   0.02616   0.03420   0.10766   0.11759
 Alpha virt. eigenvalues --    0.12929   0.13444   0.14352   0.14800   0.15157
 Alpha virt. eigenvalues --    0.16626   0.17683   0.18246   0.18989   0.19689
 Alpha virt. eigenvalues --    0.19899   0.20187   0.20342   0.20840   0.21506
 Alpha virt. eigenvalues --    0.21922   0.22934   0.23863
  Beta  occ. eigenvalues --   -1.26024  -1.16479  -1.09638  -1.05730  -1.00122
  Beta  occ. eigenvalues --   -0.96079  -0.88291  -0.82689  -0.76048  -0.71348
  Beta  occ. eigenvalues --   -0.69643  -0.64808  -0.62267  -0.59839  -0.59329
  Beta  occ. eigenvalues --   -0.57801  -0.55399  -0.54444  -0.52185  -0.50495
  Beta  occ. eigenvalues --   -0.49294  -0.48855  -0.47252  -0.45354  -0.44754
  Beta  occ. eigenvalues --   -0.43626  -0.39932  -0.38678  -0.36999
  Beta virt. eigenvalues --    0.00241   0.01346   0.02687   0.10770   0.12198
  Beta virt. eigenvalues --    0.12981   0.13641   0.14190   0.14789   0.15203
  Beta virt. eigenvalues --    0.16630   0.17830   0.18262   0.19267   0.19664
  Beta virt. eigenvalues --    0.19973   0.20206   0.20354   0.20971   0.21519
  Beta virt. eigenvalues --    0.21931   0.22952   0.23844
          Condensed to atoms (all electrons):
               1          2          3          4          5          6
     1  C    4.267561   0.000000   0.000000   0.000000   0.000000   0.000000
     2  C    0.000000   4.204763   0.000000   0.000000   0.000000   0.000000
     3  C    0.000000   0.000000   4.453471   0.000000   0.000000   0.000000
     4  C    0.000000   0.000000   0.000000   3.381801   0.000000   0.000000
     5  C    0.000000   0.000000   0.000000   0.000000   4.136292   0.000000
     6  C    0.000000   0.000000   0.000000   0.000000   0.000000   4.274221
     7  H    0.000000   0.000000   0.000000   0.000000   0.000000   0.000000
     8  H    0.000000   0.000000   0.000000   0.000000   0.000000   0.000000
     9  H    0.000000   0.000000   0.000000   0.000000   0.000000   0.000000
    10  H    0.000000   0.000000   0.000000   0.000000   0.000000   0.000000
    11  H    0.000000   0.000000   0.000000   0.000000   0.000000   0.000000
    12  H    0.000000   0.000000   0.000000   0.000000   0.000000   0.000000
    13  C    0.000000   0.000000   0.000000   0.000000   0.000000   0.000000
    14  H    0.000000   0.000000   0.000000   0.000000   0.000000   0.000000
    15  H    0.000000   0.000000   0.000000   0.000000   0.000000   0.000000
    16  H    0.000000   0.000000   0.000000   0.000000   0.000000   0.000000
    17  H    0.000000   0.000000   0.000000   0.000000   0.000000   0.000000
    18  H    0.000000   0.000000   0.000000   0.000000   0.000000   0.000000
    19  H    0.000000   0.000000   0.000000   0.000000   0.000000   0.000000
    20  O    0.000000   0.000000   0.000000   0.000000   0.000000   0.000000
    21  O    0.000000   0.000000   0.000000   0.000000   0.000000   0.000000
    22  O    0.000000   0.000000   0.000000   0.000000   0.000000   0.000000
               7          8          9         10         11         12
     1  C    0.000000   0.000000   0.000000   0.000000   0.000000   0.000000
     2  C    0.000000   0.000000   0.000000   0.000000   0.000000   0.000000
     3  C    0.000000   0.000000   0.000000   0.000000   0.000000   0.000000
     4  C    0.000000   0.000000   0.000000   0.000000   0.000000   0.000000
     5  C    0.000000   0.000000   0.000000   0.000000   0.000000   0.000000
     6  C    0.000000   0.000000   0.000000   0.000000   0.000000   0.000000
     7  H    0.818704   0.000000   0.000000   0.000000   0.000000   0.000000
     8  H    0.000000   0.861865   0.000000   0.000000   0.000000   0.000000
     9  H    0.000000   0.000000   0.870205   0.000000   0.000000   0.000000
    10  H    0.000000   0.000000   0.000000   0.867513   0.000000   0.000000
    11  H    0.000000   0.000000   0.000000   0.000000   0.838149   0.000000
    12  H    0.000000   0.000000   0.000000   0.000000   0.000000   0.823847
    13  C    0.000000   0.000000   0.000000   0.000000   0.000000   0.000000
    14  H    0.000000   0.000000   0.000000   0.000000   0.000000   0.000000
    15  H    0.000000   0.000000   0.000000   0.000000   0.000000   0.000000
    16  H    0.000000   0.000000   0.000000   0.000000   0.000000   0.000000
    17  H    0.000000   0.000000   0.000000   0.000000   0.000000   0.000000
    18  H    0.000000   0.000000   0.000000   0.000000   0.000000   0.000000
    19  H    0.000000   0.000000   0.000000   0.000000   0.000000   0.000000
    20  O    0.000000   0.000000   0.000000   0.000000   0.000000   0.000000
    21  O    0.000000   0.000000   0.000000   0.000000   0.000000   0.000000
    22  O    0.000000   0.000000   0.000000   0.000000   0.000000   0.000000
              13         14         15         16         17         18
     1  C    0.000000   0.000000   0.000000   0.000000   0.000000   0.000000
     2  C    0.000000   0.000000   0.000000   0.000000   0.000000   0.000000
     3  C    0.000000   0.000000   0.000000   0.000000   0.000000   0.000000
     4  C    0.000000   0.000000   0.000000   0.000000   0.000000   0.000000
     5  C    0.000000   0.000000   0.000000   0.000000   0.000000   0.000000
     6  C    0.000000   0.000000   0.000000   0.000000   0.000000   0.000000
     7  H    0.000000   0.000000   0.000000   0.000000   0.000000   0.000000
     8  H    0.000000   0.000000   0.000000   0.000000   0.000000   0.000000
     9  H    0.000000   0.000000   0.000000   0.000000   0.000000   0.000000
    10  H    0.000000   0.000000   0.000000   0.000000   0.000000   0.000000
    11  H    0.000000   0.000000   0.000000   0.000000   0.000000   0.000000
    12  H    0.000000   0.000000   0.000000   0.000000   0.000000   0.000000
    13  C    4.664107   0.000000   0.000000   0.000000   0.000000   0.000000
    14  H    0.000000   0.827135   0.000000   0.000000   0.000000   0.000000
    15  H    0.000000   0.000000   0.842701   0.000000   0.000000   0.000000
    16  H    0.000000   0.000000   0.000000   0.841168   0.000000   0.000000
    17  H    0.000000   0.000000   0.000000   0.000000   0.818083   0.000000
    18  H    0.000000   0.000000   0.000000   0.000000   0.000000   0.772080
    19  H    0.000000   0.000000   0.000000   0.000000   0.000000   0.000000
    20  O    0.000000   0.000000   0.000000   0.000000   0.000000   0.000000
    21  O    0.000000   0.000000   0.000000   0.000000   0.000000   0.000000
    22  O    0.000000   0.000000   0.000000   0.000000   0.000000   0.000000
              19         20         21         22
     1  C    0.000000   0.000000   0.000000   0.000000
     2  C    0.000000   0.000000   0.000000   0.000000
     3  C    0.000000   0.000000   0.000000   0.000000
     4  C    0.000000   0.000000   0.000000   0.000000
     5  C    0.000000   0.000000   0.000000   0.000000
     6  C    0.000000   0.000000   0.000000   0.000000
     7  H    0.000000   0.000000   0.000000   0.000000
     8  H    0.000000   0.000000   0.000000   0.000000
     9  H    0.000000   0.000000   0.000000   0.000000
    10  H    0.000000   0.000000   0.000000   0.000000
    11  H    0.000000   0.000000   0.000000   0.000000
    12  H    0.000000   0.000000   0.000000   0.000000
    13  C    0.000000   0.000000   0.000000   0.000000
    14  H    0.000000   0.000000   0.000000   0.000000
    15  H    0.000000   0.000000   0.000000   0.000000
    16  H    0.000000   0.000000   0.000000   0.000000
    17  H    0.000000   0.000000   0.000000   0.000000
    18  H    0.000000   0.000000   0.000000   0.000000
    19  H    0.798452   0.000000   0.000000   0.000000
    20  O    0.000000   5.750335   0.000000   0.000000
    21  O    0.000000   0.000000   6.377196   0.000000
    22  O    0.000000   0.000000   0.000000   6.510351
          Atomic-Atomic Spin Densities.
               1          2          3          4          5          6
     1  C    0.028208   0.000000   0.000000   0.000000   0.000000   0.000000
     2  C    0.000000  -0.001390   0.000000   0.000000   0.000000   0.000000
     3  C    0.000000   0.000000   0.000139   0.000000   0.000000   0.000000
     4  C    0.000000   0.000000   0.000000  -0.000428   0.000000   0.000000
     5  C    0.000000   0.000000   0.000000   0.000000   0.760234   0.000000
     6  C    0.000000   0.000000   0.000000   0.000000   0.000000  -0.035606
     7  H    0.000000   0.000000   0.000000   0.000000   0.000000   0.000000
     8  H    0.000000   0.000000   0.000000   0.000000   0.000000   0.000000
     9  H    0.000000   0.000000   0.000000   0.000000   0.000000   0.000000
    10  H    0.000000   0.000000   0.000000   0.000000   0.000000   0.000000
    11  H    0.000000   0.000000   0.000000   0.000000   0.000000   0.000000
    12  H    0.000000   0.000000   0.000000   0.000000   0.000000   0.000000
    13  C    0.000000   0.000000   0.000000   0.000000   0.000000   0.000000
    14  H    0.000000   0.000000   0.000000   0.000000   0.000000   0.000000
    15  H    0.000000   0.000000   0.000000   0.000000   0.000000   0.000000
    16  H    0.000000   0.000000   0.000000   0.000000   0.000000   0.000000
    17  H    0.000000   0.000000   0.000000   0.000000   0.000000   0.000000
    18  H    0.000000   0.000000   0.000000   0.000000   0.000000   0.000000
    19  H    0.000000   0.000000   0.000000   0.000000   0.000000   0.000000
    20  O    0.000000   0.000000   0.000000   0.000000   0.000000   0.000000
    21  O    0.000000   0.000000   0.000000   0.000000   0.000000   0.000000
    22  O    0.000000   0.000000   0.000000   0.000000   0.000000   0.000000
               7          8          9         10         11         12
     1  C    0.000000   0.000000   0.000000   0.000000   0.000000   0.000000
     2  C    0.000000   0.000000   0.000000   0.000000   0.000000   0.000000
     3  C    0.000000   0.000000   0.000000   0.000000   0.000000   0.000000
     4  C    0.000000   0.000000   0.000000   0.000000   0.000000   0.000000
     5  C    0.000000   0.000000   0.000000   0.000000   0.000000   0.000000
     6  C    0.000000   0.000000   0.000000   0.000000   0.000000   0.000000
     7  H   -0.001099   0.000000   0.000000   0.000000   0.000000   0.000000
     8  H    0.000000  -0.000385   0.000000   0.000000   0.000000   0.000000
     9  H    0.000000   0.000000   0.000203   0.000000   0.000000   0.000000
    10  H    0.000000   0.000000   0.000000   0.000187   0.000000   0.000000
    11  H    0.000000   0.000000   0.000000   0.000000  -0.000018   0.000000
    12  H    0.000000   0.000000   0.000000   0.000000   0.000000   0.000076
    13  C    0.000000   0.000000   0.000000   0.000000   0.000000   0.000000
    14  H    0.000000   0.000000   0.000000   0.000000   0.000000   0.000000
    15  H    0.000000   0.000000   0.000000   0.000000   0.000000   0.000000
    16  H    0.000000   0.000000   0.000000   0.000000   0.000000   0.000000
    17  H    0.000000   0.000000   0.000000   0.000000   0.000000   0.000000
    18  H    0.000000   0.000000   0.000000   0.000000   0.000000   0.000000
    19  H    0.000000   0.000000   0.000000   0.000000   0.000000   0.000000
    20  O    0.000000   0.000000   0.000000   0.000000   0.000000   0.000000
    21  O    0.000000   0.000000   0.000000   0.000000   0.000000   0.000000
    22  O    0.000000   0.000000   0.000000   0.000000   0.000000   0.000000
              13         14         15         16         17         18
     1  C    0.000000   0.000000   0.000000   0.000000   0.000000   0.000000
     2  C    0.000000   0.000000   0.000000   0.000000   0.000000   0.000000
     3  C    0.000000   0.000000   0.000000   0.000000   0.000000   0.000000
     4  C    0.000000   0.000000   0.000000   0.000000   0.000000   0.000000
     5  C    0.000000   0.000000   0.000000   0.000000   0.000000   0.000000
     6  C    0.000000   0.000000   0.000000   0.000000   0.000000   0.000000
     7  H    0.000000   0.000000   0.000000   0.000000   0.000000   0.000000
     8  H    0.000000   0.000000   0.000000   0.000000   0.000000   0.000000
     9  H    0.000000   0.000000   0.000000   0.000000   0.000000   0.000000
    10  H    0.000000   0.000000   0.000000   0.000000   0.000000   0.000000
    11  H    0.000000   0.000000   0.000000   0.000000   0.000000   0.000000
    12  H    0.000000   0.000000   0.000000   0.000000   0.000000   0.000000
    13  C   -0.003522   0.000000   0.000000   0.000000   0.000000   0.000000
    14  H    0.000000  -0.021881   0.000000   0.000000   0.000000   0.000000
    15  H    0.000000   0.000000   0.002279   0.000000   0.000000   0.000000
    16  H    0.000000   0.000000   0.000000   0.014816   0.000000   0.000000
    17  H    0.000000   0.000000   0.000000   0.000000   0.000116   0.000000
    18  H    0.000000   0.000000   0.000000   0.000000   0.000000   0.001617
    19  H    0.000000   0.000000   0.000000   0.000000   0.000000   0.000000
    20  O    0.000000   0.000000   0.000000   0.000000   0.000000   0.000000
    21  O    0.000000   0.000000   0.000000   0.000000   0.000000   0.000000
    22  O    0.000000   0.000000   0.000000   0.000000   0.000000   0.000000
              19         20         21         22
     1  C    0.000000   0.000000   0.000000   0.000000
     2  C    0.000000   0.000000   0.000000   0.000000
     3  C    0.000000   0.000000   0.000000   0.000000
     4  C    0.000000   0.000000   0.000000   0.000000
     5  C    0.000000   0.000000   0.000000   0.000000
     6  C    0.000000   0.000000   0.000000   0.000000
     7  H    0.000000   0.000000   0.000000   0.000000
     8  H    0.000000   0.000000   0.000000   0.000000
     9  H    0.000000   0.000000   0.000000   0.000000
    10  H    0.000000   0.000000   0.000000   0.000000
    11  H    0.000000   0.000000   0.000000   0.000000
    12  H    0.000000   0.000000   0.000000   0.000000
    13  C    0.000000   0.000000   0.000000   0.000000
    14  H    0.000000   0.000000   0.000000   0.000000
    15  H    0.000000   0.000000   0.000000   0.000000
    16  H    0.000000   0.000000   0.000000   0.000000
    17  H    0.000000   0.000000   0.000000   0.000000
    18  H    0.000000   0.000000   0.000000   0.000000
    19  H    0.000164   0.000000   0.000000   0.000000
    20  O    0.000000  -0.278797   0.000000   0.000000
    21  O    0.000000   0.000000  -0.465867   0.000000
    22  O    0.000000   0.000000   0.000000   0.000955
 Mulliken charges and spin densities:
               1          2
     1  C   -0.267561   0.028208
     2  C   -0.204763  -0.001390
     3  C   -0.453471   0.000139
     4  C    0.618199  -0.000428
     5  C   -0.136292   0.760234
     6  C   -0.274221  -0.035606
     7  H    0.181296  -0.001099
     8  H    0.138135  -0.000385
     9  H    0.129795   0.000203
    10  H    0.132487   0.000187
    11  H    0.161851  -0.000018
    12  H    0.176153   0.000076
    13  C   -0.664107  -0.003522
    14  H    0.172865  -0.021881
    15  H    0.157299   0.002279
    16  H    0.158832   0.014816
    17  H    0.181917   0.000116
    18  H    0.227920   0.001617
    19  H    0.201548   0.000164
    20  O    0.249665  -0.278797
    21  O   -0.377196  -0.465867
    22  O   -0.510351   0.000955
 Sum of Mulliken charges =   0.00000   0.00000
 Mulliken charges and spin densities with hydrogens summed into heavy atoms:
               1          2
     1  C    0.051870   0.026724
     2  C    0.057519  -0.001001
     3  C   -0.115468   0.000197
     4  C    0.618199  -0.000428
     5  C    0.036573   0.738353
     6  C    0.041910  -0.018511
    13  C   -0.052721  -0.001624
    20  O    0.249665  -0.278797
    21  O   -0.377196  -0.465867
    22  O   -0.510351   0.000955
 APT charges:
               1
     1  C   -0.243791
     2  C   -0.150529
     3  C   -0.657003
     4  C    1.182962
     5  C   -0.407336
     6  C   -0.344765
     7  H    0.189118
     8  H    0.135650
     9  H    0.121805
    10  H    0.125984
    11  H    0.167919
    12  H    0.186423
    13  C   -0.936710
    14  H    0.157117
    15  H    0.168151
    16  H    0.167716
    17  H    0.215997
    18  H    0.268267
    19  H    0.240103
    20  O    0.729197
    21  O   -0.550522
    22  O   -0.765773
 Sum of APT charges =  -0.00002
 APT charges with hydrogens summed into heavy atoms:
               1
     1  C    0.080977
     2  C    0.097260
     3  C   -0.302661
     4  C    1.182962
     5  C   -0.250219
     6  C   -0.008897
    13  C   -0.212343
    20  O    0.729197
    21  O   -0.550522
    22  O   -0.765773
 Charge=              0.0000 electrons
 Dipole moment (field-independent basis, Debye):
    X=             -2.3762    Y=              3.2567    Z=              1.5912  Tot=              4.3341
 N-N= 3.479839574296D+02 E-N=-6.223223789549D+02  KE=-3.494319081795D+01
  Exact polarizability:  58.289   6.233  99.509  -0.023  11.475  45.060
 Approx polarizability:  45.870   3.709  62.376  -2.459   7.327  29.376
 Leave Link  601 at Mon Feb 15 21:21:04 2021, MaxMem=    33554432 cpu:         0.0
 (Enter /cm/shared/apps/Gaussian09/g09/l701.exe)
 Compute integral second derivatives.
 ... and contract with generalized density number  0.
 Leave Link  701 at Mon Feb 15 21:21:04 2021, MaxMem=    33554432 cpu:         0.1
 (Enter /cm/shared/apps/Gaussian09/g09/l702.exe)
 L702 exits ... SP integral derivatives will be done elsewhere.
 Leave Link  702 at Mon Feb 15 21:21:04 2021, MaxMem=    33554432 cpu:         0.0
 (Enter /cm/shared/apps/Gaussian09/g09/l703.exe)
 Compute integral second derivatives, UseDBF=F ICtDFT=           0.
 Integral derivatives from FoFJK, PRISM(SPDF).
 Calling FoFJK, ICntrl=    100127 FMM=F ISym2X=0 I1Cent= 0 IOpClX= 1 NMat=1 NMatS=1 NMatT=0.
 FoFJK:  IHMeth=40 ICntrl=  100127 DoSepK=F KAlg= 0 I1Cent=   0 FoldK=F
 IRaf=         0 NMat=   1 IRICut=       1 DoRegI=T DoRafI=F ISym2E= 0.
 FoFCou: FMM=F IPFlag=           0 FMFlag=      100000 FMFlg1=         800
         NFxFlg=           0 DoJE=F BraDBF=F KetDBF=F FulRan=T
         wScrn=  0.000000 ICntrl=  100127 IOpCl=  1 I1Cent=           0 NGrid=           0
         NMat0=    1 NMatS0=      1 NMatT0=    0 NMatD0=    1 NMtDS0=    0 NMtDT0=    0
 Symmetry not used in FoFCou.
 Leave Link  703 at Mon Feb 15 21:21:04 2021, MaxMem=    33554432 cpu:         0.1
 (Enter /cm/shared/apps/Gaussian09/g09/l716.exe)
 Dipole        =-9.34884871D-01 1.28129522D+00 6.26010995D-01
 Polarizability= 5.82889415D+01 6.23283199D+00 9.95086891D+01
                -2.28737269D-02 1.14751906D+01 4.50597480D+01
 HyperPolar    =-7.25233509D+01 2.21677266D+01 4.27773773D+01
                -1.04527634D+03 2.51224165D+01 1.12037540D+01
                -1.76673535D+02-3.19329566D+00-1.33216488D+01
                 1.86405984D+00
 -------------------------------------------------------------------
 Center     Atomic                   Forces (Hartrees/Bohr)
 Number     Number              X              Y              Z
 -------------------------------------------------------------------
      1        6           0.000410564    0.000113783    0.000102617
      2        6           0.000144327    0.000338483   -0.000028061
      3        6          -0.000298785   -0.000343237   -0.000726051
      4        6           0.000848928    0.002026424    0.001072474
      5        6          -0.025295036    0.035817943    0.005811679
      6        6           0.000463261   -0.001004839   -0.001045208
      7        1          -0.000204363    0.000021950    0.000270673
      8        1          -0.000124569   -0.000054269   -0.000080927
      9        1           0.000081296   -0.000203202    0.000041123
     10        1          -0.000007901   -0.000085102   -0.000013330
     11        1           0.000090255    0.000001340    0.000113502
     12        1           0.000057899    0.000022122    0.000082828
     13        6           0.000090307   -0.002711698    0.000638742
     14        1           0.001764581    0.000039537    0.000226260
     15        1          -0.000392671   -0.000157844   -0.000079957
     16        1          -0.000191396   -0.000499127   -0.000278419
     17        1          -0.000085705    0.000219755   -0.000032453
     18        1          -0.000761873    0.001765085   -0.001558045
     19        1          -0.000102479    0.000237897   -0.000243814
     20        8           0.020120643   -0.041351705   -0.006032689
     21        8           0.003788791    0.006424945    0.002167786
     22        8          -0.000396073   -0.000618240   -0.000408728
 -------------------------------------------------------------------
 Cartesian Forces:  Max     0.041351705 RMS     0.007973587
 Leave Link  716 at Mon Feb 15 21:21:04 2021, MaxMem=    33554432 cpu:         0.0
 (Enter /cm/shared/apps/Gaussian09/g09/l103.exe)

 GradGradGradGradGradGradGradGradGradGradGradGradGradGradGradGradGradGrad
 Berny optimization.
 Search for a saddle point.
 Step number   1 out of a maximum of  100
 All quantities printed in internal units (Hartrees-Bohrs-Radians)
 Swapping is turned off.
 Second derivative matrix not updated -- analytic derivatives used.
 ITU=  0
     Eigenvalues ---   -0.00567  -0.00067   0.00001   0.00073   0.00130
     Eigenvalues ---    0.00369   0.00697   0.01026   0.01308   0.01445
     Eigenvalues ---    0.01678   0.02320   0.03360   0.03540   0.03830
     Eigenvalues ---    0.04267   0.04514   0.04692   0.04750   0.05109
     Eigenvalues ---    0.05456   0.05581   0.05708   0.06007   0.06834
     Eigenvalues ---    0.07158   0.07606   0.07940   0.08385   0.09280
     Eigenvalues ---    0.10668   0.11952   0.12657   0.13126   0.15874
     Eigenvalues ---    0.15944   0.17758   0.21692   0.26288   0.27588
     Eigenvalues ---    0.31777   0.36149   0.41366   0.48318   0.49497
     Eigenvalues ---    0.53392   0.54960   0.56449   0.58600   0.59629
     Eigenvalues ---    0.60489   0.62189   0.64386   0.65913   0.66502
     Eigenvalues ---    0.70241   0.74536   0.83634   0.85367   1.62666
 Eigenvectors required to have negative eigenvalues:
                          Z14       Z20       Z5        Z21       Y20
   1                    0.68952  -0.46473   0.27026  -0.22238   0.17763
                          Y16       Y21       Z6        Y22       Y7
   1                    0.13879   0.12592   0.10677  -0.10458  -0.10051
 Eigenvalue     2 is  -6.68D-04 should be greater than     0.000000 Eigenvector:
                          Z11       X12       Y9        Y11       Z10
   1                    0.43788  -0.43490   0.32560  -0.27938  -0.24495
                          X10       X19       Z17       Y12       Z3
   1                    0.22971   0.22689  -0.21076  -0.15640   0.15450
 RFO step:  Lambda0=3.187203468D-05 Lambda=-5.74386583D-03.
 Linear search not attempted -- option 19 set.
 Maximum step size (   0.300) exceeded in Quadratic search.
    -- Step size scaled by   0.386
 TrRot=  0.003953 -0.002832  0.001306  0.713814  0.000965 -0.712495
 Variable       Old X    -DE/DX   Delta X   Delta X   Delta X     New X
                                 (Linear)    (Quad)   (Total)
    X1        1.96541   0.00041   0.00000  -0.01520  -0.01375   1.95166
    Y1        2.50562   0.00011   0.00000   0.00329   0.00374   2.50936
    Z1        1.12046   0.00010   0.00000  -0.00096  -0.00266   1.11780
    X2       -0.68893   0.00014   0.00000  -0.02224  -0.02234  -0.71127
    Y2        3.18991   0.00034   0.00000  -0.01490  -0.01855   3.17136
    Z2        0.18338  -0.00003   0.00000   0.00460   0.00442   0.18780
    X3       -1.72651  -0.00030   0.00000   0.02501   0.02512  -1.70138
    Y3        1.69233  -0.00034   0.00000   0.03413   0.02770   1.72004
    Z3       -2.08622  -0.00073   0.00000  -0.04963  -0.04817  -2.13438
    X4       -0.22007   0.00085   0.00000  -0.00205   0.00056  -0.21951
    Y4       -0.60440   0.00203   0.00000  -0.00008  -0.00506  -0.60946
    Z4       -2.92966   0.00107   0.00000  -0.00064   0.00121  -2.92845
    X5        0.42033  -0.02530   0.00000  -0.00770   0.00045   0.42078
    Y5       -1.62247   0.03582   0.00000   0.00468   0.00418  -1.61828
    Z5        2.82235   0.00581   0.00000   0.01649   0.01851   2.84086
    X6        1.99573   0.00046   0.00000  -0.00519   0.00037   1.99609
    Y6        0.63231  -0.00100   0.00000  -0.00050   0.00140   0.63371
    Z6        3.34605  -0.00105   0.00000  -0.00339  -0.00394   3.34211
    X7        3.13629  -0.00020   0.00000  -0.01288  -0.01160   3.12468
    Y7        1.75627   0.00002   0.00000   0.00968   0.01067   1.76694
    Z7       -0.46374   0.00027   0.00000  -0.00122  -0.00331  -0.46705
    X8        2.95468  -0.00012   0.00000  -0.02487  -0.02528   2.92940
    Y8        4.25194  -0.00005   0.00000   0.00781   0.00993   4.26187
    Z8        1.72402  -0.00008   0.00000  -0.00044  -0.00396   1.72006
    X9       -2.05326   0.00008   0.00000  -0.02941  -0.02807  -2.08133
    Y9        3.04313  -0.00020   0.00000  -0.09046  -0.09493   2.94820
    Z9        1.76583   0.00004   0.00000  -0.00877  -0.00780   1.75803
   X10       -0.68853  -0.00001   0.00000  -0.05974  -0.06288  -0.75141
   Y10        5.22251  -0.00009   0.00000   0.00055  -0.00345   5.21906
   Z10       -0.34370  -0.00001   0.00000   0.06592   0.06448  -0.27923
   X11       -3.71312   0.00009   0.00000  -0.00405  -0.00308  -3.71619
   Y11        1.16602   0.00000   0.00000   0.08499   0.07610   1.24212
   Z11       -1.69433   0.00011   0.00000  -0.12836  -0.12513  -1.81946
   X12       -1.81773   0.00006   0.00000   0.12659   0.12379  -1.69394
   Y12        2.97466   0.00002   0.00000   0.04949   0.04202   3.01668
   Z12       -3.75237   0.00008   0.00000  -0.04256  -0.04192  -3.79430
   X13       -1.58980   0.00009   0.00000  -0.03467  -0.02886  -1.61866
   Y13       -3.07356  -0.00271   0.00000   0.01388   0.00702  -3.06653
   Z13       -3.00952   0.00064   0.00000   0.01794   0.02236  -2.98716
   X14       -1.61359   0.00176   0.00000   0.00010   0.00809  -1.60549
   Y14       -1.54781   0.00004   0.00000  -0.03380  -0.03707  -1.58488
   Z14        2.64780   0.00023   0.00000   0.02473   0.02821   2.67601
   X15        3.98553  -0.00039   0.00000  -0.00321   0.00335   3.98888
   Y15        0.08659  -0.00016   0.00000  -0.00339   0.00140   0.08799
   Z15        3.75733  -0.00008   0.00000  -0.01647  -0.01813   3.73921
   X16        1.29555  -0.00019   0.00000   0.00883   0.01442   1.30997
   Y16        1.57501  -0.00050   0.00000   0.00082   0.00292   1.57793
   Z16        5.09164  -0.00028   0.00000   0.00180   0.00116   5.09280
   X17       -3.64803  -0.00009   0.00000  -0.03209  -0.02644  -3.67447
   Y17       -2.93115   0.00022   0.00000   0.04067   0.03115  -2.90000
   Z17       -2.95543  -0.00003   0.00000   0.04544   0.05126  -2.90417
   X18       -1.01530  -0.00076   0.00000  -0.02641  -0.01780  -1.03310
   Y18       -4.30943   0.00177   0.00000   0.01475   0.00967  -4.29976
   Z18       -1.39872  -0.00156   0.00000   0.00809   0.01286  -1.38586
   X19       -1.06190  -0.00010   0.00000  -0.07041  -0.06439  -1.12629
   Y19       -4.16724   0.00024   0.00000   0.01185   0.00456  -4.16268
   Z19       -4.69902  -0.00024   0.00000   0.00809   0.01285  -4.68617
   X20        1.68897   0.02012   0.00000   0.03870   0.04944   1.73841
   Y20       -3.74648  -0.04135   0.00000  -0.01849  -0.01746  -3.76393
   Z20        2.50355  -0.00603   0.00000   0.00231   0.00473   2.50828
   X21        0.42409   0.00379   0.00000   0.05880   0.07169   0.49578
   Y21       -5.67083   0.00642   0.00000  -0.00982  -0.01077  -5.68160
   Z21        1.95347   0.00217   0.00000   0.01547   0.02000   1.97347
   X22        1.97019  -0.00040   0.00000   0.00524   0.00720   1.97739
   Y22       -0.42296  -0.00062   0.00000  -0.04270  -0.04518  -0.46814
   Z22       -3.58317  -0.00041   0.00000   0.01282   0.01298  -3.57019
         Item               Value     Threshold  Converged?
 Maximum Force            0.041352     0.000450     NO 
 RMS     Force            0.007974     0.000300     NO 
 Maximum Displacement     0.125128     0.001800     NO 
 RMS     Displacement     0.036632     0.001200     NO 
 Predicted change in Energy=-1.858711D-03
 Lowest energy point so far.  Saving SCF results.
 GradGradGradGradGradGradGradGradGradGradGradGradGradGradGradGradGradGrad

 Leave Link  103 at Mon Feb 15 21:21:04 2021, MaxMem=    33554432 cpu:         0.0
 (Enter /cm/shared/apps/Gaussian09/g09/l202.exe)
                          Input orientation:                          
 ---------------------------------------------------------------------
 Center     Atomic      Atomic             Coordinates (Angstroms)
 Number     Number       Type             X           Y           Z
 ---------------------------------------------------------------------
      1          6           0        1.032774    1.327896    0.591515
      2          6           0       -0.376390    1.678212    0.099378
      3          6           0       -0.900333    0.910204   -1.129466
      4          6           0       -0.116159   -0.322510   -1.549669
      5          6           0        0.222668   -0.856358    1.503317
      6          6           0        1.056287    0.335345    1.768569
      7          1           0        1.653511    0.935024   -0.247151
      8          1           0        1.550172    2.255284    0.910216
      9          1           0       -1.101392    1.560121    0.930307
     10          1           0       -0.397629    2.761809   -0.147760
     11          1           0       -1.966524    0.657300   -0.962818
     12          1           0       -0.896395    1.596358   -2.007855
     13          6           0       -0.856558   -1.622740   -1.580736
     14          1           0       -0.849590   -0.838684    1.416083
     15          1           0        2.110825    0.046564    1.978703
     16          1           0        0.693205    0.835007    2.694991
     17          1           0       -1.944448   -1.534613   -1.536823
     18          1           0       -0.546692   -2.275336   -0.733365
     19          1           0       -0.596005   -2.202794   -2.479816
     20          8           0        0.919928   -1.991788    1.327324
     21          8           0        0.262354   -3.006571    1.044315
     22          8           0        1.046390   -0.247729   -1.889261
 ---------------------------------------------------------------------
                    Distance matrix (angstroms):
                    1          2          3          4          5
     1  C    0.000000
     2  C    1.533188   0.000000
     3  C    2.621669   1.540912   0.000000
     4  C    2.937441   2.605757   1.520225   0.000000
     5  C    2.501724   2.958709   3.363543   3.117775   0.000000
     6  C    1.539860   2.577218   3.543647   3.580239   1.478322
     7  H    1.114909   2.189271   2.702075   2.531734   2.884528
     8  H    1.108747   2.168435   3.460421   3.933538   3.434582
     9  H    2.173332   1.109061   2.169212   3.265772   2.814400
    10  H    2.156081   1.111625   2.155202   3.399647   4.025165
    11  H    3.444045   2.167729   1.108376   2.174459   3.628436
    12  H    3.248152   2.171989   1.114625   2.121499   4.426787
    13  C    4.122440   3.734920   2.573202   1.496580   3.356107
    14  H    2.986181   2.879652   3.088852   3.098393   1.075946
    15  H    2.174465   3.518576   4.412897   4.188686   2.146252
    16  H    2.186975   2.931252   4.143850   4.473484   2.121841
    17  H    4.646250   3.931693   2.689470   2.193627   3.794585
    18  H    4.151302   4.043885   3.229493   2.159917   2.758289
    19  H    4.954974   4.665049   3.406878   2.151950   4.283511
    20  O    3.402125   4.081322   4.215534   3.483828   1.344003
    21  O    4.425628   4.821628   4.627991   3.751828   2.199017
    22  O    2.938883   3.112594   2.389107   1.213440   3.543802
                    6          7          8          9         10
     6  C    0.000000
     7  H    2.186188   0.000000
     8  H    2.160292   1.758768   0.000000
     9  H    2.618843   3.060497   2.741249   0.000000
    10  H    3.416711   2.748489   2.273721   1.761126   0.000000
    11  H    4.086750   3.700535   4.292897   2.268802   2.748583
    12  H    4.434468   3.168510   3.864584   2.945528   2.250999
    13  C    4.325613   3.823749   5.199641   4.061513   4.635548
    14  H    2.266045   3.489685   3.948088   2.460416   3.951382
    15  H    1.113374   2.439862   2.516832   3.702476   4.264591
    16  H    1.113440   3.096513   2.436597   2.619252   3.603293
    17  H    4.840122   4.550568   5.706461   4.046586   4.772985
    18  H    3.955360   3.922207   5.255922   4.217372   5.073261
    19  H    5.217375   4.459934   5.997737   5.103321   5.488635
    20  O    2.372518   3.403432   4.313793   4.106022   5.148642
    21  O    3.510453   4.374858   5.418818   4.767335   5.927127
    22  O    3.704025   2.112824   3.788924   3.978851   3.765015
                   11         12         13         14         15
    11  H    0.000000
    12  H    1.766100   0.000000
    13  C    2.610063   3.247554   0.000000
    14  H    3.024017   4.201782   3.097695   0.000000
    15  H    5.064615   5.228564   4.925602   3.140743   0.000000
    16  H    4.526070   5.022275   5.169539   2.610951   1.773234
    17  H    2.265933   3.335156   1.092336   3.225319   5.595024
    18  H    3.266332   4.091043   1.113525   2.603045   4.450723
    19  H    3.515643   3.840122   1.101224   4.135593   5.680223
    20  O    4.538064   5.224676   3.427669   2.113935   2.448961
    21  O    4.735022   5.643173   3.171411   2.464623   3.689385
    22  O    3.279486   2.681256   2.367922   3.856069   4.022534
                   16         17         18         19         20
    16  H    0.000000
    17  H    5.520921   0.000000
    18  H    4.792202   1.774243   0.000000
    19  H    6.137502   1.775951   1.748653   0.000000
    20  O    3.148442   4.076396   2.545155   4.103278   0.000000
    21  O    4.203342   3.701204   2.085523   3.715150   1.241887
    22  O    4.723603   3.274965   2.825810   2.620781   3.661169
                   21         22
    21  O    0.000000
    22  O    4.102657   0.000000
 Symmetry turned off by external request.
 Stoichiometry    C7H12O3
 Framework group  C1[X(C7H12O3)]
 Deg. of freedom    60
 Full point group                 C1      NOp   1
 Rotational constants (GHZ):      1.5202858      1.1830322      0.8138972
 Leave Link  202 at Mon Feb 15 21:21:04 2021, MaxMem=    33554432 cpu:         0.0
 (Enter /cm/shared/apps/Gaussian09/g09/l301.exe)
 Standard basis: VSTO-6G (5D, 7F)
 Ernie: Thresh=  0.10000D-02 Tol=  0.10000D-05 Strict=F.
  NNHCO=     0 NNPyr=     0 NCTC=     0               EPep=         0.000000000
    EC=       273.667125621  ECS=         4.252513570   EG=         0.366282056
   EHC=         0.001315164  EAt=       -66.250074573  AtH=         3.187411664
 EPDDG=         0.000000000  ECC=       278.287236411 EAtT=        69.437486237
    52 basis functions,   312 primitive gaussians,    52 cartesian basis functions
    29 alpha electrons       29 beta electrons
       nuclear repulsion energy       347.7247226480 Hartrees.
 IExCor=    0 DFT=F Ex=HF Corr=None ExCW=0 ScaHFX=  1.000000
 ScaDFX=  1.000000  1.000000  1.000000  1.000000 ScalE2=  1.000000  1.000000
 IRadAn=      0 IRanWt=     -1 IRanGd=            0 ICorTp=0 IEmpDi=  4
 Integral buffers will be    131072 words long.
 Regular integral format.
 Two-electron integral symmetry is turned off.
 Leave Link  301 at Mon Feb 15 21:21:04 2021, MaxMem=    33554432 cpu:         0.0
 (Enter /cm/shared/apps/Gaussian09/g09/l302.exe)
 Do NDO integrals.
 NPDir=0 NMtPBC=     1 NCelOv=     1 NCel=       1 NClECP=     1 NCelD=      1
         NCelK=      1 NCelE2=     1 NClLst=     1 CellRange=     0.0.
 One-electron integrals computed using PRISM.
 NBasis=    52 RedAO= F EigKep=  0.00D+00  NBF=    52
 NBsUse=    52 1.00D-04 EigRej=  0.00D+00 NBFU=    52
 Leave Link  302 at Mon Feb 15 21:21:04 2021, MaxMem=    33554432 cpu:         0.1
 (Enter /cm/shared/apps/Gaussian09/g09/l303.exe)
 DipDrv:  MaxL=1.
 Leave Link  303 at Mon Feb 15 21:21:04 2021, MaxMem=    33554432 cpu:         0.0
 (Enter /cm/shared/apps/Gaussian09/g09/l401.exe)
 Initial guess from the checkpoint file:  "/local/Gau-72233.chk"
 B after Tr=     0.007020   -0.006390    0.002387
         Rot=    0.999998    0.000736   -0.000760   -0.001389 Ang=   0.20 deg.
 Guess basis will be translated and rotated to current coordinates.
 JPrj=0 DoOrth=T DoCkMO=T.
 Initial guess <Sx>= 0.0000 <Sy>= 0.0000 <Sz>= 0.0000 <S**2>= 0.5380 S= 0.3877
 Leave Link  401 at Mon Feb 15 21:21:04 2021, MaxMem=    33554432 cpu:         0.1
 (Enter /cm/shared/apps/Gaussian09/g09/l508.exe)
 Direct SCF.
 Tight linear equation convergence will be used.
 UPM6 wavefunction.
 Quadratic Convergence SCF Method.
 Line search only if initial step raises energy.
 Two-electron integral symmetry not used.
 ReadGW:  IGet=1 IStart=       59293 Next=       59293 LGW=           0.
 Keep J ints in memory in canonical form, NReq=905730.
 FoFCou: FMM=F IPFlag=           0 FMFlag=           0 FMFlg1=           0
         NFxFlg=           0 DoJE=F BraDBF=F KetDBF=F FulRan=T
         wScrn=  0.000000 ICntrl=     600 IOpCl=  2 I1Cent=           0 NGrid=           0
         NMat0=    1 NMatS0=    112 NMatT0=    0 NMatD0=    1 NMtDS0=    0 NMtDT0=    0
 Symmetry not used in FoFCou.
 Iteration   1 EE=-0.515886272286252E-01                                Grad=3.771D-02 Max rot=    0.2834 deg.
 Gradient too large for Newton-Raphson -- use scaled steepest descent instead.
 Alpha Gap=     0.331 HL deriv= 9.79D-03
  Beta Gap=     0.370 HL deriv= 5.64D-04
     ILin= 1 X=0.000D+00 Y=-5.158862722863D-02 DE= 0.00D+00 F= -3.53D-03
     ILin= 2 X=3.000D-01 Y=-5.255007348376D-02 DE=-9.61D-04 F= -2.88D-03
     ILin= 3 X=6.000D-01 Y=-5.331873501359D-02 DE=-1.73D-03 F= -2.24D-03
     ILin= 4 X=1.200D+00 Y=-5.427730067345D-02 DE=-2.69D-03 F= -9.54D-04
     ILin= 5 X=2.400D+00 Y=-5.387725968126D-02 DE=-2.29D-03 F=  1.62D-03
     An  expanding polynomial of degree  5 produced  1.6447
 Iteration   2 EE=-0.544895107375396E-01 Delta-E=       -0.002900883509 Grad=8.081D-03 Max rot=    0.0938 deg.
 QCNR:  CnvC1=3.65D-09 CnvC2=3.65D-08
 LinEq1:  Iter=  0 NonCon=     1 RMS=2.86D-04 Max=4.10D-03 NDo=     1
 AX will form     1 AO Fock derivatives at one time.
 LinEq1:  Iter=  1 NonCon=     1 RMS=9.14D-05 Max=2.32D-03 NDo=     1
 LinEq1:  Iter=  2 NonCon=     1 RMS=1.84D-05 Max=2.01D-04 NDo=     1
 LinEq1:  Iter=  3 NonCon=     1 RMS=4.18D-06 Max=6.64D-05 NDo=     1
 LinEq1:  Iter=  4 NonCon=     1 RMS=7.91D-07 Max=1.07D-05 NDo=     1
 LinEq1:  Iter=  5 NonCon=     1 RMS=1.25D-07 Max=1.13D-06 NDo=     1
 LinEq1:  Iter=  6 NonCon=     1 RMS=3.03D-08 Max=5.59D-07 NDo=     1
 LinEq1:  Iter=  7 NonCon=     1 RMS=7.33D-09 Max=1.04D-07 NDo=     1
 LinEq1:  Iter=  8 NonCon=     0 RMS=1.74D-09 Max=2.83D-08 NDo=     1
 Linear equations converged to 3.652D-09 3.652D-08 after     8 iterations.
 Angle between quadratic step and gradient=  55.40 degrees.
     ILin= 1 X=0.000D+00 Y=-5.448951073754D-02 DE= 0.00D+00 F= -3.32D-04
     ILin= 2 X=1.000D+00 Y=-5.465179115765D-02 DE=-1.62D-04 F=  1.07D-05
     Accept linear search using points  1 and  2.
     An  expanding polynomial of degree  2 produced  0.9696
     Minimum is close to point  2 DX= -3.04D-02 DF= -1.63D-07 DXR=  3.13D-02 DFR=  1.00D-03 which will be used.
 Iteration   3 EE=-0.546517911576530E-01 Delta-E=       -0.000162280420 Grad=1.674D-04 Max rot=    0.0062 deg.
 QCNR:  CnvC1=1.67D-09 CnvC2=1.67D-08
 LinEq1:  Iter=  0 NonCon=     1 RMS=1.19D-05 Max=3.15D-04 NDo=     1
 LinEq1:  Iter=  1 NonCon=     1 RMS=1.08D-06 Max=1.93D-05 NDo=     1
 LinEq1:  Iter=  2 NonCon=     1 RMS=1.99D-07 Max=2.44D-06 NDo=     1
 LinEq1:  Iter=  3 NonCon=     1 RMS=4.48D-08 Max=8.45D-07 NDo=     1
 LinEq1:  Iter=  4 NonCon=     1 RMS=6.77D-09 Max=6.17D-08 NDo=     1
 LinEq1:  Iter=  5 NonCon=     1 RMS=1.59D-09 Max=1.90D-08 NDo=     1
 LinEq1:  Iter=  6 NonCon=     0 RMS=3.96D-10 Max=6.92D-09 NDo=     1
 Linear equations converged to 1.674D-09 1.674D-08 after     6 iterations.
 Angle between quadratic step and gradient=  19.73 degrees.
     ILin= 1 X=0.000D+00 Y=-5.465179115765D-02 DE= 0.00D+00 F= -6.61D-07
     ILin= 2 X=1.000D+00 Y=-5.465212269860D-02 DE=-3.32D-07 F= -2.51D-09
     Reject lnstep minimum 1.004D+00 FVal=-5.465212270339D-02 Lims=  0.00D+00  1.00D+00
     ILin= 3 X=2.000D+00 Y=-5.465179783107D-02 DE=-6.67D-09 F=  6.51D-07
     An  expanding polynomial of degree  3 produced  1.0051
     Minimum is close to point  2 DX=  5.08D-03 DF= -8.48D-12 DXR=  5.06D-03 DFR=  2.56D-05 which will be used.
 Iteration   4 EE=-0.546521226985988E-01 Delta-E=       -0.000000331541 Grad=1.279D-06 Max rot=    0.0000 deg.
 QCNR:  CnvC1=1.28D-11 CnvC2=1.28D-10
 LinEq1:  Iter=  0 NonCon=     1 RMS=6.57D-08 Max=1.27D-06 NDo=     1
 LinEq1:  Iter=  1 NonCon=     1 RMS=1.82D-08 Max=2.61D-07 NDo=     1
 LinEq1:  Iter=  2 NonCon=     1 RMS=3.55D-09 Max=6.34D-08 NDo=     1
 LinEq1:  Iter=  3 NonCon=     1 RMS=7.93D-10 Max=1.38D-08 NDo=     1
 LinEq1:  Iter=  4 NonCon=     1 RMS=1.60D-10 Max=1.49D-09 NDo=     1
 LinEq1:  Iter=  5 NonCon=     1 RMS=3.95D-11 Max=5.52D-10 NDo=     1
 LinEq1:  Iter=  6 NonCon=     1 RMS=7.61D-12 Max=1.37D-10 NDo=     1
 LinEq1:  Iter=  7 NonCon=     0 RMS=1.18D-12 Max=1.24D-11 NDo=     1
 Linear equations converged to 1.279D-11 1.279D-10 after     7 iterations.
 Angle between quadratic step and gradient=  44.63 degrees.
     ILin= 1 X=0.000D+00 Y=-5.465212269860D-02 DE= 0.00D+00 F= -2.14D-11
     ILin= 2 X=1.000D+00 Y=-5.465212270997D-02 DE=-1.14D-11
 Iteration   5 EE=-0.546521227099674E-01 Delta-E=       -0.000000000011 Grad=1.411D-08 Max rot=    0.0000 deg.
 Rotation gradient small -- convergence achieved.
 SCF Done:  E(UPM6) = -0.546521227100E-01 a.u. after    5 cycles
            Convg  =    0.1411D-07                    31 Fock formations.
              S**2 =  0.6014                  -V/T =  0.9984
 <Sx>= 0.0000 <Sy>= 0.0000 <Sz>= 0.0000 <S**2>= 0.6014 S= 0.4227
 <L.S>= 0.000000000000E+00
 Annihilation of the first spin contaminant:
 S**2 before annihilation     0.6014,   after     0.0388
 Leave Link  508 at Mon Feb 15 21:21:05 2021, MaxMem=    33554432 cpu:         0.0
 (Enter /cm/shared/apps/Gaussian09/g09/l801.exe)
 Range of M.O.s used for correlation:     1    52
 NBasis=    52 NAE=    29 NBE=    29 NFC=     0 NFV=     0
 NROrb=     52 NOA=    29 NOB=    29 NVA=    23 NVB=    23
 Leave Link  801 at Mon Feb 15 21:21:05 2021, MaxMem=    33554432 cpu:         0.0
 (Enter /cm/shared/apps/Gaussian09/g09/l1101.exe)
 Using compressed storage, NAtomX=    22.
 Will process     23 centers per pass.
 Leave Link 1101 at Mon Feb 15 21:21:05 2021, MaxMem=    33554432 cpu:         0.0
 (Enter /cm/shared/apps/Gaussian09/g09/l1102.exe)
 Symmetrizing basis deriv contribution to polar:
 IMax=3 JMax=2 DiffMx= 0.00D+00
 Leave Link 1102 at Mon Feb 15 21:21:05 2021, MaxMem=    33554432 cpu:         0.0
 (Enter /cm/shared/apps/Gaussian09/g09/l1110.exe)
 Forming Gx(P) for the SCF density, NAtomX=    22.
 Integral derivatives from FoFJK, PRISM(SPDF).
 Do as many integral derivatives as possible in FoFJK.
 G2DrvN: MDV=      33495261.
 G2DrvN: will do    23 centers at a time, making    1 passes.
 Calling FoFCou, ICntrl=  3107 FMM=F I1Cent=   0 AccDes= 0.00D+00.
 FoFJK:  IHMeth=40 ICntrl=    3107 DoSepK=F KAlg= 0 I1Cent=   0 FoldK=F
 IRaf=         0 NMat=   1 IRICut=       1 DoRegI=T DoRafI=F ISym2E= 0.
 FoFCou: FMM=F IPFlag=           0 FMFlag=      100000 FMFlg1=           0
         NFxFlg=           0 DoJE=F BraDBF=F KetDBF=F FulRan=T
         wScrn=  0.000000 ICntrl=    3107 IOpCl=  1 I1Cent=           0 NGrid=           0
         NMat0=    1 NMatS0=      1 NMatT0=    0 NMatD0=    1 NMtDS0=    0 NMtDT0=    0
 Symmetry not used in FoFCou.
 End of G2Drv F.D. properties file   721 does not exist.
 End of G2Drv F.D. properties file   722 does not exist.
 End of G2Drv F.D. properties file   788 does not exist.
[...]
 0,-0.00007733,-0.00001061,-0.00005187,0.00011177,0.00011735,0.00008446
 ,-0.00006443,0.00008125,-0.00005748,-0.00014460,-0.00033872,-0.0006711
 2,-0.00047532,0.00053618,-0.00145511,-0.00566746,-0.00470304,0.0097681
 3,-0.01282669,0.13145226,0.00004111,-0.00035686,-0.00079981,-0.0096589
 8,0.00413848,-0.03390614,-0.00613021,0.08508331,-0.13810331,-0.0057882
 0,0.00810810,0.00727225,0.00004969,-0.00007293,0.00008618,0.00007322,-
 0.00000480,0.00007546,-0.00004092,-0.00004125,0.00010823,-0.00013711,-
 0.00007855,0.00002970,-0.00027479,-0.00075154,-0.00146012,-0.00044150,
 -0.00048226,-0.00005534,0.00606059,0.00900863,-0.00654494,0.01420288,-
 0.10311017,0.17640741,0.00024009,-0.00053108,-0.00067714,-0.00038080,0
 .00088804,-0.00014928,0.00900083,0.00528677,0.00384461,-0.09765547,-0.
 05990824,-0.00685626,0.00028874,0.00057346,-0.00055450,0.00042609,-0.0
 0042944,-0.00016016,-0.00008476,0.00062752,0.00088748,-0.00000792,0.00
 007864,0.00009707,-0.00007163,0.00003454,0.00005696,-0.00008502,0.0000
 8864,0.00022859,-0.00072090,0.00028598,0.00022395,-0.00052535,-0.00040
 518,-0.00034673,0.45253003,0.00010697,-0.00047953,-0.00020284,0.002047
 79,-0.00129976,0.00047211,-0.00431106,-0.03678111,-0.00939811,-0.04646
 104,-0.18202493,-0.00564875,-0.00173577,0.00190138,-0.00017959,-0.0004
 5682,0.00086239,-0.00042903,0.00030071,0.00031427,0.00088714,0.0000733
 4,0.00022751,-0.00002354,-0.00029859,-0.00025201,0.00025999,-0.0002434
 4,0.00014731,-0.00036667,-0.00021015,-0.00241324,-0.00045297,0.0005220
 7,-0.00017956,-0.00108979,0.03109346,0.44202455,-0.00059388,-0.0002086
 9,0.00001697,-0.00111200,0.00051117,0.00025532,0.00207727,-0.01320569,
 0.01642533,-0.00832939,-0.00668349,-0.07685847,0.00006894,-0.00015791,
 -0.00196056,-0.00057097,-0.00050713,-0.00002496,0.00017671,-0.00011173
 ,-0.00077764,0.00007291,0.00002634,0.00000475,0.00010473,0.00049605,0.
 00010041,0.00006923,0.00019618,0.00016780,-0.00016754,-0.00006152,-0.0
 0094847,0.00121684,-0.00225749,-0.00166287,-0.01128015,0.01001925,0.37
 890995,0.00003147,-0.00005939,0.00024586,-0.00010729,-0.00011519,0.000
 15556,-0.00056424,-0.00011516,0.00028881,0.00109346,-0.00038896,0.0000
 1673,-0.22194273,-0.00969383,-0.02264785,-0.01907765,-0.00918167,-0.00
 387162,-0.00007320,-0.00003011,0.00004701,-0.00002437,0.00001002,-0.00
 009918,0.00021094,0.00002052,-0.00003375,0.00002618,0.00000914,-0.0000
 1301,0.00011817,0.00015304,-0.00025156,0.00003377,0.00000858,-0.000006
 88,-0.00091279,0.00048584,0.00018089,0.26840492,-0.00006966,0.00007547
 ,-0.00013797,0.00002680,-0.00032728,0.00026534,0.00009095,-0.00009917,
 -0.00017023,-0.00002007,0.00043669,0.00020846,-0.01337199,-0.03090939,
 -0.00195506,-0.02282169,-0.00398046,-0.00414123,-0.00002138,-0.0000452
 3,-0.00008474,0.00001403,0.00004454,-0.00001254,0.00014160,-0.00069053
 ,0.00009979,-0.00000004,-0.00002709,-0.00001299,0.00006764,-0.00002802
 ,0.00015178,0.00000906,-0.00000460,0.00002269,-0.00017172,-0.00032021,
 0.00017182,0.00268256,0.04774343,-0.00038750,-0.00024031,-0.00013355,0
 .00016761,0.00020172,-0.00018549,0.00000201,-0.00044805,0.00027614,0.0
 0064745,0.00052326,-0.00128735,-0.02307375,-0.00133240,-0.03119893,-0.
 00546657,-0.00275669,0.00339183,0.00010929,0.00021412,0.00005438,0.000
 02879,-0.00000308,0.00000326,-0.00008270,0.00020108,0.00019055,-0.0000
 1784,0.00004665,0.00003123,-0.00017043,0.00019968,-0.00018588,-0.00002
 016,0.00004737,-0.00006919,-0.00010121,0.00028988,0.00067520,0.0276968
 3,0.00583203,0.01864001,-0.00494660,0.00925615,-0.00985038,0.00026308,
 -0.00019647,0.00007869,0.00006060,0.00006290,0.00018145,0.00027844,-0.
 00013159,-0.00025034,-0.03124544,-0.01089594,-0.00777572,-0.18895207,0
 .04264194,-0.03390814,0.00062244,-0.00023826,-0.00028470,0.00043817,0.
 00026545,0.00003470,-0.00004743,0.00004227,-0.00001093,0.00002878,0.00
 007709,-0.00001711,-0.00002931,0.00001000,-0.00000670,-0.00001529,0.00
 001614,-0.00004261,-0.00001922,-0.00001237,0.00019445,-0.00074961,-0.0
 0102566,-0.00043975,0.23812806,0.01620257,-0.00943050,0.01268585,0.000
 16477,-0.00115404,0.00160571,0.00008046,-0.00011325,-0.00002654,-0.000
 11882,0.00014819,0.00000039,-0.02575408,0.00200339,-0.00505422,0.04347
 846,-0.04659224,0.00874754,0.00015240,0.00052720,0.00030706,0.00039265
 ,-0.00078096,0.00053265,-0.00014413,0.00004278,0.00005390,0.00024526,-
 0.00007092,0.00007580,-0.00000440,-0.00000181,0.00001379,0.00000936,0.
 00002011,0.00000373,0.00008725,-0.00011561,-0.00000874,-0.00100322,-0.
 00237426,-0.00037592,-0.04700112,0.06083597,-0.01955425,0.01481991,-0.
 01189171,-0.00010395,0.00172001,-0.00174089,0.00011172,-0.00010854,0.0
 0000239,-0.00057893,0.00010668,-0.00004299,-0.01049728,-0.00245529,0.0
 0115258,-0.03172957,0.00825884,-0.04070005,-0.00059146,0.00043059,-0.0
 0084174,-0.00014059,0.00052542,0.00002520,0.00016902,-0.00001418,-0.00
 000339,-0.00033762,0.00013824,-0.00008734,-0.00002704,0.00000502,-0.00
 000154,-0.00001179,0.00001262,-0.00002307,0.00020633,0.00003693,0.0000
 8150,-0.00040446,-0.00048844,0.00072349,0.04805932,-0.01608010,0.05167
 831,0.00265261,-0.00123152,0.00510231,-0.00006642,-0.00001212,-0.00029
 697,-0.00013340,0.00012848,0.00017510,0.00024051,-0.00025473,-0.000100
 77,0.00579423,-0.00959275,-0.00886533,-0.05381419,0.02922530,0.0478999
 4,0.00028889,0.00013246,0.00012828,0.00013970,-0.00034390,0.00040977,-
 0.00031063,0.00023517,-0.00038052,0.00001740,0.00003180,-0.00005844,0.
 00000205,-0.00000515,-0.00005492,0.00000908,0.00000344,-0.00002297,-0.
 00010153,0.00016866,-0.00003392,0.00000248,-0.00046144,-0.00026820,-0.
 01384159,0.01313353,0.01518995,0.06045514,-0.00416686,0.00531827,0.013
 10825,-0.00010345,-0.00004120,0.00012891,0.00010985,-0.00012573,-0.000
 01931,-0.00019395,0.00006332,-0.00006128,-0.00218325,-0.02539379,-0.02
 207814,0.02922286,-0.06954048,-0.06976390,-0.00002416,-0.00114153,0.00
 141965,-0.00033032,0.00032755,0.00083085,0.00019077,0.00012888,0.00012
 449,-0.00004265,0.00003120,0.00008174,-0.00001015,0.00002605,-0.000002
 73,-0.00001975,0.00001485,-0.00000729,0.00005594,-0.00003051,0.0000836
 4,-0.00034496,0.00008381,-0.00038612,0.00828808,-0.00230829,-0.0063927
 0,-0.02943828,0.09464960,0.00958303,0.00172789,-0.03409531,-0.00008204
 ,-0.00030052,-0.00039085,0.00012146,-0.00001073,0.00021966,0.00011756,
 -0.00009058,-0.00025077,-0.00288657,-0.01891147,-0.00974158,0.04812079
 ,-0.06564674,-0.14669739,0.00021485,0.00164192,-0.00199339,0.00046421,
 0.00028146,-0.00003761,-0.00056210,0.00027188,-0.00020237,0.00011197,0
 .00007001,0.00004184,-0.00006273,0.00002051,-0.00001248,-0.00001820,0.
 00003265,-0.00004498,0.00008149,0.00005511,0.00022253,-0.00042296,-0.0
 0005005,0.00029759,0.00436336,-0.00240098,0.00166421,-0.05878918,0.083
 64572,0.19121394,0.00002391,0.00012837,0.00010276,-0.00025186,0.000200
 92,-0.00002060,-0.00037761,0.00065407,0.00026364,-0.02535375,-0.015079
 18,-0.00115658,-0.00010757,-0.00002387,0.00018519,0.00000200,0.0000623
 9,0.00006792,-0.00005395,-0.00009389,-0.00011360,-0.00001687,-0.000033
 31,-0.00001180,0.00008287,0.00001034,-0.00002083,0.00005149,-0.0000267
 8,0.00004617,0.00059341,-0.00029272,-0.00010720,0.00007072,-0.00004107
 ,0.00012773,-0.21937093,0.01434558,-0.00834187,0.00015863,-0.00000125,
 -0.00010674,-0.00002380,-0.00000913,-0.00003758,0.00001599,-0.00001579
 ,-0.00004540,0.26704183,0.00003247,0.00003366,-0.00003024,-0.00015530,
 0.00007328,-0.00002828,0.00009313,-0.00177952,0.00032624,-0.02838148,-
 0.00184976,-0.00179175,0.00015108,-0.00020185,0.00002645,0.00008403,-0
 .00008694,0.00003746,-0.00003177,0.00001200,0.00002204,-0.00000743,-0.
 00001890,0.00001293,0.00002063,0.00002144,-0.00002423,-0.00000550,-0.0
 0002337,0.00003728,0.00038310,-0.00078144,-0.00049298,-0.00010200,-0.0
 0029175,-0.00003814,0.01775439,-0.03585776,-0.00098224,-0.00007126,0.0
 0006038,-0.00007505,-0.00000565,0.00001153,0.00000047,-0.00002273,0.00
 000687,-0.00001369,-0.01143123,0.04413899,0.00008762,0.00002148,-0.000
 01200,0.00004342,0.00006950,-0.00004260,-0.00003656,-0.00023239,-0.000
 77067,-0.00108294,0.00096690,0.00424627,0.00005233,0.00003447,0.000160
 43,0.00013475,0.00005185,0.00000155,-0.00003324,0.00000233,0.00008352,
 -0.00002110,-0.00000757,0.00000348,-0.00002490,-0.00009122,0.00001503,
 -0.00001141,-0.00002715,0.00000101,0.00011126,-0.00051743,0.00037636,0
 .00004186,0.00009507,0.00018338,-0.00856745,-0.00118928,-0.03459160,-0
 .00022557,-0.00008525,-0.00024609,-0.00003245,0.00001048,-0.00000602,-
 0.00000896,-0.00001768,-0.00003400,0.01050815,0.00066081,0.03216976,0.
 00006022,0.00010220,0.00008303,0.00015612,-0.00008730,0.00001295,-0.00
 099851,-0.00047931,-0.00095343,0.00859753,-0.00776347,0.00863443,-0.00
 055319,-0.00022301,-0.00012309,-0.00017641,0.00031049,0.00003220,0.000
 00606,-0.00009513,0.00006095,-0.00000836,-0.00000419,-0.00001988,0.000
 02014,-0.00003255,-0.00000834,-0.00000455,-0.00001305,-0.00003404,0.00
 005731,0.00029099,0.00000011,-0.00004621,0.00014114,0.00008059,-0.0423
 3466,0.01902744,-0.03161337,0.00062599,0.00012796,0.00005713,-0.000036
 66,-0.00006171,-0.00007620,0.00005942,-0.00001808,-0.00005734,-0.01063
 294,0.01186844,-0.01862692,0.04446020,0.00000590,0.00018319,0.00010146
 ,0.00011687,-0.00029482,-0.00005830,-0.00053964,0.00043409,-0.00220417
 ,-0.00612255,-0.03046326,0.02416997,0.00080334,-0.00180373,-0.00057178
 ,0.00024406,-0.00019224,0.00004590,-0.00005885,-0.00011230,-0.00015087
 ,0.00000348,-0.00002992,0.00002322,0.00000381,-0.00003639,-0.00007316,
 0.00001160,-0.00005642,-0.00003795,0.00016193,-0.00028999,0.00004586,-
 0.00014953,0.00016253,0.00021045,0.02242905,-0.08212659,0.07977149,-0.
 00018319,-0.00008250,-0.00080796,0.00004170,0.00006207,-0.00001152,-0.
 00004952,0.00001388,-0.00000367,0.00609540,0.00022939,0.00604949,-0.02
 132885,0.10560150,0.00021478,-0.00003569,-0.00003644,0.00032432,0.0000
 6284,-0.00001036,-0.00013192,-0.00123340,-0.00142980,0.00625431,0.0170
 5400,-0.00027679,-0.00123999,0.00007822,-0.00036012,0.00012711,0.00038
 624,0.00005218,-0.00002889,0.00006487,0.00032063,-0.00004556,0.0000189
 7,-0.00002017,-0.00003316,-0.00016021,0.00006002,-0.00004309,-0.000010
 83,-0.00003642,-0.00012717,-0.00009161,0.00026440,-0.00001142,0.000171
 87,-0.00003590,-0.03397790,0.07704524,-0.14941073,0.00041991,-0.000432
 44,-0.00054763,-0.00011676,-0.00000296,-0.00003378,0.00006746,-0.00003
 919,-0.00010410,-0.00722136,0.00422600,-0.00220513,0.03949252,-0.09831
 262,0.17904986,-0.00002641,0.00001462,0.00002436,0.00002299,0.00000197
 ,0.00003507,-0.00047605,-0.00136473,0.00063680,0.00981811,-0.00742727,
 -0.00970007,-0.00007860,-0.00001175,0.00001230,-0.00008276,0.00009383,
 -0.00001485,0.00003799,-0.00004873,-0.00001190,0.00000594,0.00000401,-
 0.00000769,0.00000246,-0.00000935,0.00001684,-0.00000377,0.00000828,-0
 .00001125,-0.00006241,0.00013555,0.00009513,0.00018588,-0.00013686,-0.
 00007769,-0.05449486,0.02924498,0.04361358,0.00009702,0.00002050,-0.00
 000457,0.00001111,-0.00002167,-0.00002243,0.00001797,-0.00000684,-0.00
 000697,-0.01281763,0.01229730,0.01758821,0.00501894,-0.00102113,-0.001
 52959,0.05531914,-0.00002015,0.00011591,0.00010855,-0.00009527,-0.0000
 5750,-0.00001036,-0.00027228,-0.00176674,0.00112865,-0.00444261,-0.031
 70465,-0.02338842,0.00015869,-0.00025866,0.00008918,0.00006797,-0.0000
 5314,0.00006960,-0.00003562,-0.00010505,-0.00020404,-0.00001141,-0.000
 02797,-0.00000375,0.00002947,0.00002582,-0.00001224,0.00001378,-0.0000
 2599,0.00000287,-0.00009459,-0.00003545,-0.00008520,0.00019257,-0.0003
 9245,-0.00017738,0.02947297,-0.08735424,-0.07826645,-0.00005149,-0.000
 00196,-0.00008576,-0.00000663,0.00001737,-0.00002102,-0.00001402,-0.00
 000282,-0.00001761,0.00643651,-0.00000790,-0.00547694,-0.00140398,0.00
 648746,0.00444069,-0.03210254,0.11432348,0.00008539,0.00012325,0.00007
 805,-0.00011639,0.00014577,-0.00004940,0.00007157,0.00119712,-0.000057
 88,-0.00402086,-0.01462325,-0.00048139,-0.00016722,0.00010160,0.000172
 68,0.00003994,0.00011382,0.00005603,-0.00006530,-0.00008861,-0.0000355
 2,-0.00003185,-0.00003132,-0.00000713,0.00002607,-0.00003611,-0.000006
 22,0.00001441,-0.00004011,0.00002666,0.00012661,-0.00009599,0.00007001
 ,-0.00000178,-0.00000005,0.00022485,0.04390125,-0.08081969,-0.14467488
 ,0.00006888,-0.00003211,-0.00012210,-0.00005014,-0.00001473,-0.0000398
 8,0.00000793,-0.00002234,-0.00005450,0.00582325,-0.00296622,0.00035897
 ,0.00449748,-0.00502126,-0.02465176,-0.05202111,0.10160796,0.17019053,
 -0.00091240,-0.00172076,-0.00012957,0.00026493,0.00054512,-0.00026129,
 0.00003642,-0.00023197,-0.00055454,-0.00031050,0.00140843,0.00032268,-
 0.17009658,0.07816862,-0.00313978,0.01286963,-0.00606415,0.00098381,-0
 .00008633,0.00014756,-0.00002628,-0.00003186,-0.00018616,0.00019917,0.
 00004019,-0.00030279,0.00012734,-0.00000243,-0.00004551,-0.00004048,0.
 00003702,-0.00003766,0.00014498,0.00003008,0.00000176,0.00003776,0.000
 32108,-0.00090169,0.00051139,-0.02493411,0.03922304,0.00243453,0.00005
 687,-0.00019432,-0.00023928,-0.00148587,-0.00159443,-0.00052546,-0.000
 07353,0.00008295,-0.00004650,-0.00101026,0.00007849,-0.00179217,-0.000
 09623,0.00004533,-0.00011254,0.33552403,0.00076852,0.00021886,-0.00034
 058,0.00029173,0.00111406,-0.00023462,-0.00068967,-0.00067507,-0.00198
 313,0.00073305,0.00411401,0.00322610,0.08971885,-0.08704755,-0.0004190
 9,-0.00660216,-0.04764772,-0.00803798,-0.00064146,0.00003503,0.0009568
 5,-0.00044708,-0.00022657,-0.00018156,0.00022754,-0.00059349,0.0001032
 0,-0.00005920,-0.00025406,-0.00003411,0.00026329,-0.00008399,0.0003376
 3,0.00015850,0.00000798,0.00025621,0.00040016,-0.00520969,0.00022219,0
 .01996245,-0.01039783,-0.00154089,-0.00303621,-0.00052869,-0.00093219,
 -0.00089517,-0.00108331,-0.00100015,-0.00005456,0.00048050,0.00010295,
 -0.00164277,0.00350380,-0.00247032,-0.00031848,0.00061718,-0.00032575,
 0.01801092,0.37393063,0.00026807,0.00060615,-0.00025752,0.00018498,0.0
 0027679,-0.00009027,0.00006280,-0.00063759,-0.00040535,-0.00014524,0.0
 0225649,-0.00014759,-0.00081362,-0.00344561,-0.02379972,0.00044440,-0.
 00837811,-0.00201250,-0.00009793,0.00030616,0.00030767,-0.00009671,0.0
 0004012,-0.00013716,0.00001694,-0.00012213,0.00010011,-0.00003504,-0.0
 0002701,-0.00000359,-0.00004162,0.00003137,0.00007246,0.00002433,0.000
 04814,-0.00000039,0.00043941,-0.00163396,0.00106226,-0.00087771,0.0005
 8218,0.01374362,-0.00069755,-0.00011936,-0.00013484,-0.00033740,-0.001
 16427,-0.00025954,-0.00021202,0.00010631,-0.00011421,-0.00142045,0.000
 74340,-0.00228858,-0.00014308,0.00004513,-0.00031083,0.04406376,0.0706
 7546,0.04333775,-0.00026126,0.00013577,0.00011728,-0.00022142,-0.00055
 627,0.00011540,0.00037486,0.00048837,0.00085933,-0.00105876,-0.0024836
 6,-0.00101850,0.04149081,-0.01415385,0.00177117,0.00067297,0.00371143,
 -0.00018443,0.00022267,-0.00008324,-0.00032427,0.00015151,0.00009169,0
 .00006784,-0.00011237,0.00029988,-0.00008105,0.00001556,0.00009896,0.0
 0002841,-0.00012214,-0.00002380,-0.00013642,-0.00007850,-0.00002191,-0
 .00009159,0.00003707,0.00335926,-0.00201906,-0.00186439,-0.00445982,-0
 .00051446,0.00029704,0.00032306,0.00024481,0.00021464,0.00051394,0.000
 37955,0.00007806,-0.00028109,0.00016799,0.00014250,-0.00161698,0.00190
 505,0.00002821,-0.00019195,0.00028134,-0.15027561,-0.11612829,-0.04051
 336,0.10972324,-0.00130542,-0.00089191,-0.00034766,-0.00024229,-0.0007
 3209,0.00014267,0.00023197,0.00022750,0.00128227,0.00105510,-0.0016366
 3,-0.00201582,-0.00952153,-0.13064649,-0.02645287,0.00608858,-0.006329
 86,-0.00230372,0.00052650,-0.00016589,-0.00060491,0.00030559,-0.000013
 86,0.00032074,-0.00016072,0.00043911,-0.00011121,0.00002976,0.00018511
 ,0.00001138,-0.00017413,0.00012288,-0.00024252,-0.00008790,0.00002748,
 -0.00017928,-0.00020080,0.00157128,0.00184461,-0.00221545,0.00090008,0
 .00062440,0.00177984,-0.00008192,0.00048064,-0.00079421,-0.00101035,0.
 00068682,-0.00009403,-0.00023852,-0.00025429,0.00115571,-0.00161698,0.
 00076861,0.00021866,-0.00038644,-0.00004883,-0.12600843,-0.22868473,-0
 .05956295,0.13027113,0.36812438,-0.00065248,-0.00062993,-0.00034741,-0
 .00019489,-0.00021568,0.00001172,0.00005854,0.00067036,0.00059891,-0.0
 0066081,-0.00285063,-0.00065538,0.00313374,-0.02722531,-0.00106731,0.0
 0061453,-0.00111381,0.00446182,0.00014909,-0.00016277,-0.00034217,0.00
 009394,-0.00010333,0.00021854,-0.00002391,0.00014569,-0.00006851,0.000
 02702,0.00003773,0.00000938,0.00002001,-0.00002848,-0.00010489,-0.0000
 3255,-0.00006642,-0.00001402,-0.00126238,0.00415936,-0.00335281,-0.000
 22762,0.00029825,-0.00433408,0.00043476,0.00003313,0.00005472,0.000196
 15,0.00045314,0.00011587,0.00031883,-0.00018068,0.00009282,0.00074937,
 -0.00194040,0.00167327,0.00016839,-0.00012991,0.00047535,-0.04184081,-
 0.05723991,-0.02853979,0.03855803,0.08521192,0.03100365,0.00294371,-0.
 00193320,-0.00365460,-0.00296378,-0.00097113,-0.00230882,-0.04818261,0
 .03305642,0.02731251,-0.65974096,-0.05131148,0.20062364,-0.00017418,0.
 00063291,0.00057350,0.00121827,-0.00051702,-0.00016963,-0.00129493,0.0
 0240272,0.00467492,-0.00008489,0.00014957,0.00032404,0.00034391,0.0001
 8804,0.00003039,-0.00025742,-0.00030832,0.00026508,0.00007968,0.002828
 00,0.00036611,-0.00120369,-0.00182381,0.00238634,-0.04607698,-0.046141
 78,0.01577363,-0.00055169,0.00002332,-0.00049128,-0.00027636,0.0000433
 5,0.00037113,-0.00015658,0.00011006,-0.00009921,0.00096205,-0.00227236
 ,-0.00001775,-0.00340249,0.00107471,-0.00250585,-0.00242726,0.00232488
 ,0.00164342,0.00014124,-0.00005445,-0.00007739,0.00054961,-0.00083844,
 0.00037583,0.76056421,0.00088359,-0.00162726,-0.00326968,0.00036398,-0
 .00001951,-0.00124120,0.03312441,0.00133218,-0.01353260,-0.04901934,-0
 .05962494,0.01821770,-0.00045115,0.00005341,0.00023147,-0.00012497,0.0
 0061343,-0.00030563,-0.00135066,-0.00119955,-0.00008743,0.00005637,0.0
 0016611,0.00019674,-0.00007441,-0.00000402,0.00025643,-0.00022196,0.00
 022757,0.00025816,0.00149070,-0.00318631,-0.00089251,-0.00086440,0.000
 17008,-0.00044164,-0.04751184,-0.01260623,0.00910434,0.00012498,-0.000
 05767,-0.00012879,0.00006665,-0.00011818,-0.00003208,0.00005682,0.0000
 1364,0.00001066,-0.00073667,-0.00393044,-0.00016635,0.00012895,0.00042
 864,-0.00152641,0.00042992,0.00059425,0.00087694,-0.00041179,-0.001588
 13,-0.00061574,0.00070724,0.00082223,0.00087136,0.06333559,0.07953862,
 0.00069129,-0.00341739,-0.00453957,-0.00056466,0.00076226,0.00011295,0
 .02788521,-0.01271369,0.00675264,0.20321331,0.01765021,-0.12579791,-0.
 00016045,0.00052407,-0.00060068,-0.00021866,-0.00013781,-0.00033281,-0
 .00237298,-0.00117321,-0.00183857,0.00022402,0.00022615,-0.00005790,-0
 .00002112,0.00022278,0.00032667,0.00006542,0.00038545,0.00004938,0.000
 34182,-0.00167106,0.00005750,0.00138487,-0.00034074,-0.00166739,0.0139
 6659,0.00820815,0.01633887,-0.00003876,-0.00003027,0.00028863,0.000136
 36,0.00001290,0.00016511,0.00004186,0.00007935,0.00014333,-0.00004913,
 0.00116757,0.00033052,-0.00076716,-0.00196684,0.00002786,0.00135990,0.
 00038658,-0.00116239,-0.00011887,-0.00114266,-0.00012024,0.00038898,0.
 00074983,0.00011419,-0.24539263,-0.00778291,0.11140865\\0.00000002,0.,
 -0.00000001,0.00000001,-0.00000002,-0.00000001,0.00000002,-0.00000004,
 -0.00000003,0.00000009,0.00000008,-0.00000002,-0.00000003,0.00000003,-
 0.00000002,0.,0.,0.,0.,0.,0.,0.,0.,0.,-0.00000004,0.,0.00000004,0.,0.0
 0000006,-0.00000002,-0.00000001,0.,0.,0.,0.,-0.00000003,0.00000014,0.0
 0000034,-0.00000005,-0.00000008,0.,-0.00000002,0.00000004,0.,0.0000000
 2,-0.00000003,0.00000002,0.00000004,-0.00000052,0.00000008,0.00000015,
 0.00000029,-0.00000033,0.00000038,0.00000008,-0.00000019,-0.00000050,0
 .00000006,-0.00000002,0.00000004,-0.00000004,-0.00000002,0.,-0.0000000
 1,-0.00000001,0.00000003\\\@


 IF YOU GET CONFUSED, LOGIC OUT YOUR DILEMMA

           --  PICKER X-RAY CORP.    DIGITAL PRINTER MANUAL CA. 1964
 Job cpu time:       0 days  0 hours  0 minutes 13.1 seconds.
 File lengths (MBytes):  RWF=     51 Int=      0 D2E=      0 Chk=      2 Scr=      1
 Normal termination of Gaussian 09 at Mon Feb 15 21:21:19 2021.
