 Entering Gaussian System, Link 0=g09
 Initial command:
 /cm/shared/apps/Gaussian09/g09/l1.exe "/local/Gau-89064.inp" -scrdir="/local/"
 Entering Link 1 = /cm/shared/apps/Gaussian09/g09/l1.exe PID=     89065.
  
 Copyright (c) 1988,1990,1992,1993,1995,1998,2003,2009,2013,
            Gaussian, Inc.  All Rights Reserved.
  
 This is part of the Gaussian(R) 09 program.  It is based on
 the Gaussian(R) 03 system (copyright 2003, Gaussian, Inc.),
 the Gaussian(R) 98 system (copyright 1998, Gaussian, Inc.),
 the Gaussian(R) 94 system (copyright 1995, Gaussian, Inc.),
 the Gaussian 92(TM) system (copyright 1992, Gaussian, Inc.),
 the Gaussian 90(TM) system (copyright 1990, Gaussian, Inc.),
 the Gaussian 88(TM) system (copyright 1988, Gaussian, Inc.),
 the Gaussian 86(TM) system (copyright 1986, Carnegie Mellon
 University), and the Gaussian 82(TM) system (copyright 1983,
 Carnegie Mellon University). Gaussian is a federally registered
 trademark of Gaussian, Inc.
  
 This software contains proprietary and confidential information,
 including trade secrets, belonging to Gaussian, Inc.
  
 This software is provided under written license and may be
 used, copied, transmitted, or stored only in accord with that
 written license.
  
 The following legend is applicable only to US Government
 contracts under FAR:
  
                    RESTRICTED RIGHTS LEGEND
  
 Use, reproduction and disclosure by the US Government is
 subject to restrictions as set forth in subparagraphs (a)
 and (c) of the Commercial Computer Software - Restricted
 Rights clause in FAR 52.227-19.
  
 Gaussian, Inc.
 340 Quinnipiac St., Bldg. 40, Wallingford CT 06492
  
  
 ---------------------------------------------------------------
 Warning -- This program may not be used in any manner that
 competes with the business of Gaussian, Inc. or will provide
 assistance to any competitor of Gaussian, Inc.  The licensee
 of this program is prohibited from giving any competitor of
 Gaussian, Inc. access to this program.  By using this program,
 the user acknowledges that Gaussian, Inc. is engaged in the
 business of creating and licensing software in the field of
 computational chemistry and represents and warrants to the
 licensee that it is not a competitor of Gaussian, Inc. and that
 it will not use this program in any manner prohibited above.
 ---------------------------------------------------------------
  

 Cite this work as:
 Gaussian 09, Revision D.01,
 M. J. Frisch, G. W. Trucks, H. B. Schlegel, G. E. Scuseria, 
 M. A. Robb, J. R. Cheeseman, G. Scalmani, V. Barone, B. Mennucci, 
 G. A. Petersson, H. Nakatsuji, M. Caricato, X. Li, H. P. Hratchian, 
 A. F. Izmaylov, J. Bloino, G. Zheng, J. L. Sonnenberg, M. Hada, 
 M. Ehara, K. Toyota, R. Fukuda, J. Hasegawa, M. Ishida, T. Nakajima, 
 Y. Honda, O. Kitao, H. Nakai, T. Vreven, J. A. Montgomery, Jr., 
 J. E. Peralta, F. Ogliaro, M. Bearpark, J. J. Heyd, E. Brothers, 
 K. N. Kudin, V. N. Staroverov, T. Keith, R. Kobayashi, J. Normand, 
 K. Raghavachari, A. Rendell, J. C. Burant, S. S. Iyengar, J. Tomasi, 
 M. Cossi, N. Rega, J. M. Millam, M. Klene, J. E. Knox, J. B. Cross, 
 V. Bakken, C. Adamo, J. Jaramillo, R. Gomperts, R. E. Stratmann, 
 O. Yazyev, A. J. Austin, R. Cammi, C. Pomelli, J. W. Ochterski, 
 R. L. Martin, K. Morokuma, V. G. Zakrzewski, G. A. Voth, 
 P. Salvador, J. J. Dannenberg, S. Dapprich, A. D. Daniels, 
 O. Farkas, J. B. Foresman, J. V. Ortiz, J. Cioslowski, 
 and D. J. Fox, Gaussian, Inc., Wallingford CT, 2013.
 
 ******************************************
 Gaussian 09:  ES64L-G09RevD.01 24-Apr-2013
                15-Feb-2021 
 ******************************************
 %nprocshared=1
 Will use up to    1 processors via shared memory.
 ----------------------------------------------------------------------
 #P upm6 scf=qc opt(calcall, ts, noeigentest, cartesian,maxcycle=100) N
 oSymm, guess=mix
 ----------------------------------------------------------------------
 1/5=1,6=100,10=4,11=1,14=-1,18=10,26=1,38=1/1,3;
 2/12=2,15=1,17=6,18=5,29=2,40=1/2;
 3/5=2,16=1,25=1,41=3900000,71=2,116=2,140=1/1,2,3;
 4/13=-1,35=1/1;
 5/5=2,8=3,35=1,38=5/8;
 8/6=4,10=90,11=11/1;
 11/6=1,8=1,9=11,15=111,16=1,31=1/1,2,10;
 10/6=1,31=1/2;
 6/7=2,8=2,9=2,10=2,18=1,28=1/1;
 7/7=1,10=1,25=1,30=1/1,2,3,16;
 1/5=1,6=100,10=4,11=1,14=-1,18=10,26=1/3(3);
 2/15=1,29=1/2;
 7/7=1,8=1,9=1,25=1,30=1,44=-1/16;
 99/12=1/99;
 2/15=1,29=1/2;
 3/5=2,16=1,25=1,41=3900000,71=2,116=2,135=20,140=1/1,2,3;
 4/5=5,16=3,35=1/1;
 5/5=2,8=3,35=1,38=5/8;
 8/6=4,10=90,11=11/1;
 11/6=1,8=1,9=11,15=111,16=1,31=1/1,2,10;
 10/6=1,31=1/2;
 7/7=1,10=1,25=1,30=1/1,2,3,16;
 1/5=1,6=100,10=4,11=1,14=-1,18=10,26=1/3(-8);
 2/15=1,29=1/2;
 6/7=2,8=2,9=2,10=2,18=1,19=2,28=1/1;
 7/7=1,8=1,9=1,25=1,30=1,44=-1/16;
 99/12=1/99;
 Leave Link    1 at Mon Feb 15 21:54:30 2021, MaxMem=           0 cpu:         0.0
 (Enter /cm/shared/apps/Gaussian09/g09/l101.exe)
 ------------------------------
 Gaussian input prepared by ASE
 ------------------------------
 Symbolic Z-matrix:
 Charge =  0 Multiplicity = 1
 C                     1.04038   1.30551   0.58293 
 C                    -0.35739   1.69527   0.08845 
 C                    -0.92573   0.91411  -1.11183 
 C                    -0.13126  -0.29162  -1.58094 
 C                     0.20784  -0.86069   1.52032 
 C                     1.03379   0.3299    1.77413 
 H                     1.64867   0.88325  -0.249 
 H                     1.58582   2.2212    0.88867 
 H                    -1.07842   1.6256    0.92765 
 H                    -0.33831   2.77069  -0.18838 
 H                    -1.97104   0.62804  -0.88579 
 H                    -0.99282   1.6028   -1.98404 
 C                    -0.85152  -1.60686  -1.60639 
 H                    -0.85204  -0.88716   1.39782 
 H                     2.08284   0.03976   2.00973 
 H                     0.65625   0.84735   2.68535 
 H                    -1.94042  -1.52576  -1.65364 
 H                    -0.6036   -2.20624  -0.70851 
 H                    -0.51924  -2.21983  -2.45871 
 O                     0.95853  -2.02956   1.39778 
 O                     0.33238  -3.04135   1.11749 
 O                     1.01529  -0.19443  -1.96311 
 
 NAtoms=     22 NQM=       22 NQMF=       0 NMMI=      0 NMMIF=      0
                NMic=       0 NMicF=      0.
                    Isotopes and Nuclear Properties:
 (Nuclear quadrupole moments (NQMom) in fm**2, nuclear magnetic moments (NMagM)
  in nuclear magnetons)

  Atom         1           2           3           4           5           6           7           8           9          10
 IAtWgt=          12          12          12          12          12          12           1           1           1           1
 AtmWgt=  12.0000000  12.0000000  12.0000000  12.0000000  12.0000000  12.0000000   1.0078250   1.0078250   1.0078250   1.0078250
 NucSpn=           0           0           0           0           0           0           1           1           1           1
 AtZEff=   0.0000000   0.0000000   0.0000000   0.0000000   0.0000000   0.0000000   0.0000000   0.0000000   0.0000000   0.0000000
 NQMom=    0.0000000   0.0000000   0.0000000   0.0000000   0.0000000   0.0000000   0.0000000   0.0000000   0.0000000   0.0000000
 NMagM=    0.0000000   0.0000000   0.0000000   0.0000000   0.0000000   0.0000000   2.7928460   2.7928460   2.7928460   2.7928460
 AtZNuc=   6.0000000   6.0000000   6.0000000   6.0000000   6.0000000   6.0000000   1.0000000   1.0000000   1.0000000   1.0000000

  Atom        11          12          13          14          15          16          17          18          19          20
 IAtWgt=           1           1          12           1           1           1           1           1           1          16
 AtmWgt=   1.0078250   1.0078250  12.0000000   1.0078250   1.0078250   1.0078250   1.0078250   1.0078250   1.0078250  15.9949146
 NucSpn=           1           1           0           1           1           1           1           1           1           0
 AtZEff=   0.0000000   0.0000000   0.0000000   0.0000000   0.0000000   0.0000000   0.0000000   0.0000000   0.0000000   0.0000000
 NQMom=    0.0000000   0.0000000   0.0000000   0.0000000   0.0000000   0.0000000   0.0000000   0.0000000   0.0000000   0.0000000
 NMagM=    2.7928460   2.7928460   0.0000000   2.7928460   2.7928460   2.7928460   2.7928460   2.7928460   2.7928460   0.0000000
 AtZNuc=   1.0000000   1.0000000   6.0000000   1.0000000   1.0000000   1.0000000   1.0000000   1.0000000   1.0000000   8.0000000

  Atom        21          22
 IAtWgt=          16          16
 AtmWgt=  15.9949146  15.9949146
 NucSpn=           0           0
 AtZEff=   0.0000000   0.0000000
 NQMom=    0.0000000   0.0000000
 NMagM=    0.0000000   0.0000000
 AtZNuc=   8.0000000   8.0000000
 Leave Link  101 at Mon Feb 15 21:54:30 2021, MaxMem=    33554432 cpu:         0.1
 (Enter /cm/shared/apps/Gaussian09/g09/l103.exe)

 GradGradGradGradGradGradGradGradGradGradGradGradGradGradGradGradGradGrad
 Berny optimization.
 Initialization pass.
 No Z-matrix variables, so optimization will use Cartesian coordinates.
 Trust Radius=3.00D-01 FncErr=1.00D-07 GrdErr=1.00D-07
 Number of steps in this run=    100 maximum allowed number of steps=    132.
 Search for a saddle point of order  1.
 GradGradGradGradGradGradGradGradGradGradGradGradGradGradGradGradGradGrad

 Leave Link  103 at Mon Feb 15 21:54:30 2021, MaxMem=    33554432 cpu:         0.0
 (Enter /cm/shared/apps/Gaussian09/g09/l202.exe)
 ---------------------------------------------------------------------------------------------------
                            Z-MATRIX (ANGSTROMS AND DEGREES)
   CD    Cent   Atom    N1       Length/X        N2       Alpha/Y        N3        Beta/Z          J
 ---------------------------------------------------------------------------------------------------
      1      1  C        0   1.040378          1.305511          0.582926
      2      2  C        0  -0.357386          1.695271          0.088448
      3      3  C        0  -0.925726          0.914114         -1.111832
      4      4  C        0  -0.131262         -0.291617         -1.580941
      5      5  C        0   0.207837         -0.860694          1.520320
      6      6  C        0   1.033791          0.329904          1.774131
      7      7  H        0   1.648666          0.883247         -0.249000
      8      8  H        0   1.585816          2.221204          0.888672
      9      9  H        0  -1.078416          1.625601          0.927649
     10     10  H        0  -0.338313          2.770690         -0.188383
     11     11  H        0  -1.971040          0.628042         -0.885787
     12     12  H        0  -0.992824          1.602798         -1.984039
     13     13  C        0  -0.851519         -1.606857         -1.606386
     14     14  H        0  -0.852038         -0.887163          1.397824
     15     15  H        0   2.082841          0.039758          2.009732
     16     16  H        0   0.656251          0.847351          2.685349
     17     17  H        0  -1.940422         -1.525761         -1.653636
     18     18  H        0  -0.603597         -2.206239         -0.708508
     19     19  H        0  -0.519236         -2.219825         -2.458705
     20     20  O        0   0.958527         -2.029558          1.397778
     21     21  O        0   0.332382         -3.041353          1.117491
     22     22  O        0   1.015292         -0.194425         -1.963105
 ---------------------------------------------------------------------------------------------------
                         Z-Matrix orientation:                         
 ---------------------------------------------------------------------
 Center     Atomic      Atomic             Coordinates (Angstroms)
 Number     Number       Type             X           Y           Z
 ---------------------------------------------------------------------
      1          6           0        1.040378    1.305511    0.582926
      2          6           0       -0.357386    1.695271    0.088448
      3          6           0       -0.925726    0.914114   -1.111832
      4          6           0       -0.131262   -0.291617   -1.580941
      5          6           0        0.207837   -0.860694    1.520320
      6          6           0        1.033791    0.329904    1.774131
      7          1           0        1.648666    0.883247   -0.249000
      8          1           0        1.585816    2.221204    0.888672
      9          1           0       -1.078416    1.625601    0.927649
     10          1           0       -0.338313    2.770690   -0.188383
     11          1           0       -1.971040    0.628042   -0.885787
     12          1           0       -0.992824    1.602798   -1.984039
     13          6           0       -0.851519   -1.606857   -1.606386
     14          1           0       -0.852038   -0.887163    1.397824
     15          1           0        2.082841    0.039758    2.009732
     16          1           0        0.656251    0.847351    2.685349
     17          1           0       -1.940422   -1.525761   -1.653636
     18          1           0       -0.603597   -2.206239   -0.708508
     19          1           0       -0.519236   -2.219825   -2.458705
     20          8           0        0.958527   -2.029558    1.397778
     21          8           0        0.332382   -3.041353    1.117491
     22          8           0        1.015292   -0.194425   -1.963105
 ---------------------------------------------------------------------
                    Distance matrix (angstroms):
                    1          2          3          4          5
     1  C    0.000000
     2  C    1.533025   0.000000
     3  C    2.625064   1.540743   0.000000
     4  C    2.933578   2.604941   1.518230   0.000000
     5  C    2.502854   2.983738   3.370925   3.171223   0.000000
     6  C    1.539747   2.577039   3.536918   3.605571   1.471103
     7  H    1.113742   2.190319   2.715313   2.514461   2.871900
     8  H    1.108818   2.166333   3.466748   3.919390   3.434516
     9  H    2.170387   1.108601   2.165412   3.296339   2.861358
    10  H    2.154636   1.110642   2.155153   3.370432   4.050296
    11  H    3.418292   2.166100   1.107075   2.171128   3.571161
    12  H    3.288100   2.169685   1.113343   2.119808   4.448698
    13  C    4.105393   3.744420   2.570094   1.499758   3.384566
    14  H    3.008840   2.937365   3.090049   3.122056   1.067259
    15  H    2.173623   3.519483   4.422684   4.231429   2.136815
    16  H    2.185783   2.913816   4.114085   4.485382   2.115605
    17  H    4.680115   3.989474   2.697434   2.191222   3.889901
    18  H    4.086911   3.989679   3.162758   2.156390   2.727011
    19  H    4.910388   4.673560   3.435240   2.153829   4.267143
    20  O    3.434147   4.161769   4.302762   3.616745   1.394559
    21  O    4.436468   4.895949   4.711522   3.880406   2.221048
    22  O    2.955116   3.108708   2.391877   1.212469   3.637327
                    6          7          8          9         10
     6  C    0.000000
     7  H    2.185708   0.000000
     8  H    2.160043   1.757378   0.000000
     9  H    2.618546   3.061465   2.730274   0.000000
    10  H    3.419293   2.741204   2.272500   1.761962   0.000000
    11  H    4.024060   3.684142   4.282300   2.253986   2.782644
    12  H    4.455476   3.241232   3.909511   2.913035   2.239807
    13  C    4.328202   3.780746   5.178800   4.113587   4.630014
    14  H    2.275788   3.478491   3.983003   2.566378   4.019932
    15  H    1.113642   2.449868   2.502502   3.698560   4.260480
    16  H    1.113825   3.097835   2.445324   2.589257   3.598156
    17  H    4.902961   4.545093   5.739114   4.163793   4.813856
    18  H    3.908524   3.850813   5.191027   4.193502   5.011061
    19  H    5.179760   4.383110   5.946336   5.154355   5.485648
    20  O    2.390474   3.416519   4.326853   4.210742   5.219203
    21  O    3.505499   4.359173   5.414606   4.879226   5.994579
    22  O    3.773883   2.121484   3.780660   4.006565   3.711306
                   11         12         13         14         15
    11  H    0.000000
    12  H    1.764430   0.000000
    13  C    2.601416   3.234884   0.000000
    14  H    2.960218   4.201990   3.089213   0.000000
    15  H    5.016379   5.277596   4.939445   3.138013   0.000000
    16  H    4.438893   5.009325   5.168704   2.634615   1.773083
    17  H    2.286787   3.285573   1.092940   3.302090   5.661957
    18  H    3.151901   4.035745   1.107659   2.497663   4.432864
    19  H    3.562605   3.880984   1.101176   4.093844   5.643000
    20  O    4.567261   5.332773   3.532696   2.140844   2.433236
    21  O    4.773189   5.739669   3.298319   2.474262   3.654237
    22  O    3.279519   2.694991   2.367952   3.906744   4.120429
                   16         17         18         19         20
    16  H    0.000000
    17  H    5.585800   0.000000
    18  H    4.736021   1.772969   0.000000
    19  H    6.103329   1.774720   1.752282   0.000000
    20  O    3.166357   4.238967   2.628286   4.134301   0.000000
    21  O    4.205364   3.891247   2.215343   3.766874   1.222435
    22  O    4.777272   3.256451   2.870925   2.588946   3.829683
                   21         22
    21  O    0.000000
    22  O    4.249875   0.000000
 Symmetry turned off by external request.
 Stoichiometry    C7H12O3
 Framework group  C1[X(C7H12O3)]
 Deg. of freedom    60
 Full point group                 C1      NOp   1
 Rotational constants (GHZ):      1.5231139      1.1353537      0.7914389
 Leave Link  202 at Mon Feb 15 21:54:30 2021, MaxMem=    33554432 cpu:         0.0
 (Enter /cm/shared/apps/Gaussian09/g09/l301.exe)
 Standard basis: VSTO-6G (5D, 7F)
 Ernie: Thresh=  0.10000D-02 Tol=  0.10000D-05 Strict=F.
  NNHCO=     0 NNPyr=     0 NCTC=     0               EPep=         0.000000000
    EC=       272.055405187  ECS=         4.244906744   EG=         0.365230076
   EHC=         0.001385293  EAt=       -66.250074573  AtH=         3.187411664
 EPDDG=         0.000000000  ECC=       276.666927300 EAtT=        69.437486237
    52 basis functions,   312 primitive gaussians,    52 cartesian basis functions
    29 alpha electrons       29 beta electrons
       nuclear repulsion energy       346.1044135375 Hartrees.
 IExCor=    0 DFT=F Ex=HF Corr=None ExCW=0 ScaHFX=  1.000000
 ScaDFX=  1.000000  1.000000  1.000000  1.000000 ScalE2=  1.000000  1.000000
 IRadAn=      0 IRanWt=     -1 IRanGd=            0 ICorTp=0 IEmpDi=  4
 Integral buffers will be    131072 words long.
 Regular integral format.
 Two-electron integral symmetry is turned off.
 Leave Link  301 at Mon Feb 15 21:54:30 2021, MaxMem=    33554432 cpu:         0.0
 (Enter /cm/shared/apps/Gaussian09/g09/l302.exe)
 Do NDO integrals.
 NPDir=0 NMtPBC=     1 NCelOv=     1 NCel=       1 NClECP=     1 NCelD=      1
         NCelK=      1 NCelE2=     1 NClLst=     1 CellRange=     0.0.
 One-electron integrals computed using PRISM.
 NBasis=    52 RedAO= F EigKep=  0.00D+00  NBF=    52
 NBsUse=    52 1.00D-04 EigRej=  0.00D+00 NBFU=    52
 Leave Link  302 at Mon Feb 15 21:54:30 2021, MaxMem=    33554432 cpu:         0.0
 (Enter /cm/shared/apps/Gaussian09/g09/l303.exe)
 DipDrv:  MaxL=1.
 Leave Link  303 at Mon Feb 15 21:54:30 2021, MaxMem=    33554432 cpu:         0.0
 (Enter /cm/shared/apps/Gaussian09/g09/l401.exe)
 Simple Huckel Guess.
 JPrj=0 DoOrth=F DoCkMO=T.
 Mixing orbitals, IMix= 1 IMixAn=  0 NRI=1 NE=   29 Coef=  7.07106781D-01  7.07106781D-01
 Mixing orbitals, IMix= 1 IMixAn=  0 NRI=1 NE=   29 Coef= -7.07106781D-01  7.07106781D-01
 Initial guess <Sx>= 0.0000 <Sy>= 0.0000 <Sz>= 0.0000 <S**2>= 1.0000 S= 0.6180
 Leave Link  401 at Mon Feb 15 21:54:30 2021, MaxMem=    33554432 cpu:         0.0
 (Enter /cm/shared/apps/Gaussian09/g09/l508.exe)
 Direct SCF.
 Tight linear equation convergence will be used.
 UPM6 wavefunction.
 Quadratic Convergence SCF Method.
 Line search only if initial step raises energy.
 Two-electron integral symmetry not used.
 ReadGW:  IGet=1 IStart=       59293 Next=       59293 LGW=           0.
 Keep J ints in memory in canonical form, NReq=905730.
 FoFCou: FMM=F IPFlag=           0 FMFlag=           0 FMFlg1=           0
         NFxFlg=           0 DoJE=F BraDBF=F KetDBF=F FulRan=T
         wScrn=  0.000000 ICntrl=     600 IOpCl=  2 I1Cent=           0 NGrid=           0
         NMat0=    1 NMatS0=    112 NMatT0=    0 NMatD0=    1 NMtDS0=    0 NMtDT0=    0
 Symmetry not used in FoFCou.
 Iteration   1 EE= 0.531941683908144                                    Grad=5.162D-01 Max rot=    4.2067 deg.
 Gradient too large for Newton-Raphson -- use scaled steepest descent instead.
 Alpha Gap=     0.273 HL deriv= 2.48D-01
  Beta Gap=     0.326 HL deriv= 2.82D-02
     ILin= 1 X=0.000D+00 Y= 5.319416839081D-01 DE= 0.00D+00 F= -6.80D-01
     ILin= 2 X=3.000D-01 Y= 3.442131875722D-01 DE=-1.88D-01 F= -5.69D-01
     ILin= 3 X=4.000D-01 Y= 2.893418239605D-01 DE=-2.43D-01 F= -5.28D-01
     ILin= 4 X=6.000D-01 Y= 1.922069458683D-01 DE=-3.40D-01 F= -4.42D-01
     ILin= 5 X=8.000D-01 Y= 1.130377315477D-01 DE=-4.19D-01 F= -3.49D-01
     ILin= 6 X=1.200D+00 Y= 1.384455507252D-02 DE=-5.18D-01 F= -1.43D-01
     ILin= 7 X=1.700D+00 Y= 1.208562652448D-02 DE=-5.20D-01 F=  1.40D-01
     Accept linear search using points  6 and  7.
     An  expanding polynomial of degree  7 produced  1.4532
 Iteration   2 EE=-0.479157736515390E-02 Delta-E=       -0.536733261273 Grad=1.390D-01 Max rot=    2.4668 deg.
 Gradient too large for Newton-Raphson -- use scaled steepest descent instead.
 Alpha Gap=     0.350 HL deriv= 1.23D-01
  Beta Gap=     0.372 HL deriv= 4.38D-02
     ILin= 1 X=0.000D+00 Y=-4.791577365154D-03 DE= 0.00D+00 F= -5.48D-02
     ILin= 2 X=7.000D-01 Y=-3.467007325889D-02 DE=-2.99D-02 F= -3.03D-02
     ILin= 3 X=1.000D+00 Y=-4.209699365589D-02 DE=-3.73D-02 F= -1.92D-02
     ILin= 4 X=1.500D+00 Y=-4.698060358845D-02 DE=-4.22D-02 F= -2.10D-04
     Reject lnstep minimum 1.602D+00 FVal=-4.701180462544D-02 Lims=  1.00D+00  1.50D+00
     ILin= 5 X=2.400D+00 Y=-3.125568114649D-02 DE=-2.65D-02 F=  3.54D-02
     An  expanding polynomial of degree  5 produced  1.5055
     Minimum is close to point  4 DX=  5.49D-03 DF= -5.82D-07 DXR=  3.65D-03 DFR=  1.38D-05 which will be used.
 Iteration   3 EE=-0.469806035884517E-01 Delta-E=       -0.042189026223 Grad=6.190D-02 Max rot=    0.6982 deg.
 Gradient too large for Newton-Raphson -- use scaled steepest descent instead.
 Alpha Gap=     0.402 HL deriv= 2.94D-02
  Beta Gap=     0.358 HL deriv= 2.28D-03
     ILin= 1 X=0.000D+00 Y=-4.698060358845D-02 DE= 0.00D+00 F= -9.99D-03
     ILin= 2 X=1.500D+00 Y=-5.335261836035D-02 DE=-6.37D-03 F=  1.55D-03
     Accept linear search using points  1 and  2.
     An  expanding polynomial of degree  2 produced  1.4104
     Minimum is close to point  2 DX= -8.96D-02 DF= -4.55D-05 DXR=  6.35D-02 DFR=  7.14D-03 which will be used.
 Iteration   4 EE=-0.533526183603499E-01 Delta-E=       -0.006372014772 Grad=3.556D-02 Max rot=    0.4968 deg.
 Gradient too large for Newton-Raphson -- use scaled steepest descent instead.
 Alpha Gap=     0.404 HL deriv= 1.39D-02
  Beta Gap=     0.357 HL deriv= 1.28D-03
     ILin= 1 X=0.000D+00 Y=-5.335261836035D-02 DE= 0.00D+00 F= -3.22D-03
     ILin= 2 X=1.500D+00 Y=-5.507597080191D-02 DE=-1.72D-03 F=  9.29D-04
     Accept linear search using points  1 and  2.
     An  expanding polynomial of degree  2 produced  1.3148
 Iteration   5 EE=-0.552003912650889E-01 Delta-E=       -0.001847772905 Grad=1.784D-02 Max rot=    0.2645 deg.
 Gradient too large for Newton-Raphson -- use scaled steepest descent instead.
 Alpha Gap=     0.407 HL deriv= 3.84D-03
  Beta Gap=     0.352 HL deriv= 2.85D-03
     ILin= 1 X=0.000D+00 Y=-5.520039126509D-02 DE= 0.00D+00 F= -8.62D-04
     ILin= 2 X=1.400D+00 Y=-5.574349402184D-02 DE=-5.43D-04 F=  8.66D-05
     Accept linear search using points  1 and  2.
     An  expanding polynomial of degree  2 produced  1.3390
     Minimum is close to point  2 DX= -6.10D-02 DF= -1.87D-06 DXR=  4.56D-02 DFR=  3.44D-03 which will be used.
 Iteration   6 EE=-0.557434940218400E-01 Delta-E=       -0.000543102757 Grad=1.115D-02 Max rot=    0.1794 deg.
 Gradient too large for Newton-Raphson -- use scaled steepest descent instead.
 Alpha Gap=     0.407 HL deriv= 2.61D-03
  Beta Gap=     0.352 HL deriv= 1.59D-03
     ILin= 1 X=0.000D+00 Y=-5.574349402184D-02 DE= 0.00D+00 F= -3.35D-04
     ILin= 2 X=1.300D+00 Y=-5.595240895400D-02 DE=-2.09D-04 F=  1.42D-05
     Accept linear search using points  1 and  2.
     An  expanding polynomial of degree  2 produced  1.2726
     Minimum is close to point  2 DX= -2.74D-02 DF= -1.49D-07 DXR=  2.15D-02 DFR=  7.12D-04 which will be used.
 Iteration   7 EE=-0.559524089539991E-01 Delta-E=       -0.000208914932 Grad=6.553D-03 Max rot=    0.1116 deg.
 QCNR:  CnvC1=3.65D-09 CnvC2=3.65D-08
 LinEq1:  Iter=  0 NonCon=     1 RMS=3.01D-04 Max=8.11D-03 NDo=     1
 AX will form     1 AO Fock derivatives at one time.
 LinEq1:  Iter=  1 NonCon=     1 RMS=6.80D-05 Max=7.97D-04 NDo=     1
 LinEq1:  Iter=  2 NonCon=     1 RMS=1.54D-05 Max=3.56D-04 NDo=     1
 LinEq1:  Iter=  3 NonCon=     1 RMS=2.01D-06 Max=2.06D-05 NDo=     1
 LinEq1:  Iter=  4 NonCon=     1 RMS=5.23D-07 Max=1.23D-05 NDo=     1
 LinEq1:  Iter=  5 NonCon=     1 RMS=9.75D-08 Max=1.07D-06 NDo=     1
 LinEq1:  Iter=  6 NonCon=     1 RMS=2.16D-08 Max=2.17D-07 NDo=     1
 LinEq1:  Iter=  7 NonCon=     1 RMS=4.63D-09 Max=5.93D-08 NDo=     1
 LinEq1:  Iter=  8 NonCon=     0 RMS=9.43D-10 Max=1.30D-08 NDo=     1
 Linear equations converged to 3.652D-09 3.652D-08 after     8 iterations.
 Angle between quadratic step and gradient=  49.91 degrees.
     ILin= 1 X=0.000D+00 Y=-5.595240895400D-02 DE= 0.00D+00 F= -3.64D-04
     ILin= 2 X=1.000D+00 Y=-5.613486713906D-02 DE=-1.82D-04 F= -1.29D-06
     Reject lnstep minimum 1.004D+00 FVal=-5.613486945624D-02 Lims=  0.00D+00  1.00D+00
     ILin= 3 X=1.900D+00 Y=-5.599010358492D-02 DE=-3.77D-05 F=  3.23D-04
     An  expanding polynomial of degree  3 produced  1.0049
     Minimum is close to point  2 DX=  4.90D-03 DF= -4.34D-09 DXR=  4.88D-03 DFR=  2.38D-05 which will be used.
 Iteration   8 EE=-0.561348671390647E-01 Delta-E=       -0.000182458185 Grad=1.308D-04 Max rot=    0.0043 deg.
 QCNR:  CnvC1=1.31D-09 CnvC2=1.31D-08
 LinEq1:  Iter=  0 NonCon=     1 RMS=5.70D-06 Max=8.84D-05 NDo=     1
 LinEq1:  Iter=  1 NonCon=     1 RMS=1.32D-06 Max=1.62D-05 NDo=     1
 LinEq1:  Iter=  2 NonCon=     1 RMS=2.70D-07 Max=4.12D-06 NDo=     1
 LinEq1:  Iter=  3 NonCon=     1 RMS=4.25D-08 Max=7.68D-07 NDo=     1
 LinEq1:  Iter=  4 NonCon=     1 RMS=1.10D-08 Max=1.75D-07 NDo=     1
 LinEq1:  Iter=  5 NonCon=     1 RMS=2.03D-09 Max=2.77D-08 NDo=     1
 LinEq1:  Iter=  6 NonCon=     0 RMS=4.79D-10 Max=6.29D-09 NDo=     1
 Linear equations converged to 1.308D-09 1.308D-08 after     6 iterations.
 Angle between quadratic step and gradient=  41.45 degrees.
     ILin= 1 X=0.000D+00 Y=-5.613486713906D-02 DE= 0.00D+00 F= -1.16D-07
     ILin= 2 X=1.000D+00 Y=-5.613492532359D-02 DE=-5.82D-08 F= -2.45D-11
     Reject lnstep minimum 1.000D+00 FVal=-5.613492532359D-02 Lims=  0.00D+00  1.00D+00
     ILin= 3 X=2.000D+00 Y=-5.613486720347D-02 DE=-6.44D-11 F=  1.16D-07
     An  expanding polynomial of degree  3 produced  1.0003
     Minimum is close to point  2 DX=  2.77D-04 DF= -4.46D-15 DXR=  2.77D-04 DFR=  7.67D-08 which will be used.
 Iteration   9 EE=-0.561349253235903E-01 Delta-E=       -0.000000058185 Grad=9.360D-07 Max rot=    0.0000 deg.
 QCNR:  CnvC1=9.36D-12 CnvC2=9.36D-11
 LinEq1:  Iter=  0 NonCon=     1 RMS=3.70D-08 Max=4.80D-07 NDo=     1
 LinEq1:  Iter=  1 NonCon=     1 RMS=1.14D-08 Max=1.64D-07 NDo=     1
 LinEq1:  Iter=  2 NonCon=     1 RMS=2.03D-09 Max=2.84D-08 NDo=     1
 LinEq1:  Iter=  3 NonCon=     1 RMS=4.91D-10 Max=7.37D-09 NDo=     1
 LinEq1:  Iter=  4 NonCon=     1 RMS=1.07D-10 Max=1.13D-09 NDo=     1
 LinEq1:  Iter=  5 NonCon=     1 RMS=2.16D-11 Max=2.98D-10 NDo=     1
 LinEq1:  Iter=  6 NonCon=     0 RMS=4.93D-12 Max=6.64D-11 NDo=     1
 Linear equations converged to 9.360D-12 9.360D-11 after     6 iterations.
 Angle between quadratic step and gradient=  51.25 degrees.
     ILin= 1 X=0.000D+00 Y=-5.613492532359D-02 DE= 0.00D+00 F= -5.68D-12
     ILin= 2 X=1.000D+00 Y=-5.613492532632D-02 DE=-2.73D-12
 Iteration  10 EE=-0.561349253263188E-01 Delta-E=       -0.000000000003 Grad=1.107D-08 Max rot=    0.0000 deg.
 Rotation gradient small -- convergence achieved.
 SCF Done:  E(UPM6) = -0.561349253263E-01 a.u. after   10 cycles
            Convg  =    0.1107D-07                    42 Fock formations.
              S**2 =  0.7108                  -V/T =  0.9984
 <Sx>= 0.0000 <Sy>= 0.0000 <Sz>= 0.0000 <S**2>= 0.7108 S= 0.4802
 <L.S>= 0.000000000000E+00
 Annihilation of the first spin contaminant:
 S**2 before annihilation     0.7108,   after     0.0754
 Leave Link  508 at Mon Feb 15 21:54:30 2021, MaxMem=    33554432 cpu:         0.1
 (Enter /cm/shared/apps/Gaussian09/g09/l801.exe)
 Range of M.O.s used for correlation:     1    52
 NBasis=    52 NAE=    29 NBE=    29 NFC=     0 NFV=     0
 NROrb=     52 NOA=    29 NOB=    29 NVA=    23 NVB=    23
 Leave Link  801 at Mon Feb 15 21:54:30 2021, MaxMem=    33554432 cpu:         0.0
 (Enter /cm/shared/apps/Gaussian09/g09/l1101.exe)
 Using compressed storage, NAtomX=    22.
 Will process     23 centers per pass.
 Leave Link 1101 at Mon Feb 15 21:54:30 2021, MaxMem=    33554432 cpu:         0.0
 (Enter /cm/shared/apps/Gaussian09/g09/l1102.exe)
 Symmetrizing basis deriv contribution to polar:
 IMax=3 JMax=2 DiffMx= 0.00D+00
 Leave Link 1102 at Mon Feb 15 21:54:30 2021, MaxMem=    33554432 cpu:         0.0
 (Enter /cm/shared/apps/Gaussian09/g09/l1110.exe)
 Forming Gx(P) for the SCF density, NAtomX=    22.
 Integral derivatives from FoFJK, PRISM(SPDF).
 Do as many integral derivatives as possible in FoFJK.
 G2DrvN: MDV=      33495261.
 G2DrvN: will do    23 centers at a time, making    1 passes.
 Calling FoFCou, ICntrl=  3107 FMM=F I1Cent=   0 AccDes= 0.00D+00.
 FoFJK:  IHMeth=40 ICntrl=    3107 DoSepK=F KAlg= 0 I1Cent=   0 FoldK=F
 IRaf=         0 NMat=   1 IRICut=       1 DoRegI=T DoRafI=F ISym2E= 0.
 FoFCou: FMM=F IPFlag=           0 FMFlag=      100000 FMFlg1=           0
         NFxFlg=           0 DoJE=F BraDBF=F KetDBF=F FulRan=T
         wScrn=  0.000000 ICntrl=    3107 IOpCl=  1 I1Cent=           0 NGrid=           0
         NMat0=    1 NMatS0=      1 NMatT0=    0 NMatD0=    1 NMtDS0=    0 NMtDT0=    0
 Symmetry not used in FoFCou.
 End of G2Drv F.D. properties file   721 does not exist.
 End of G2Drv F.D. properties file   722 does not exist.
 End of G2Drv F.D. properties file   788 does not exist.
 Leave Link 1110 at Mon Feb 15 21:54:30 2021, MaxMem=    33554432 cpu:         0.0
 (Enter /cm/shared/apps/Gaussian09/g09/l1002.exe)
 Minotr:  UHF open shell wavefunction.
          IDoAtm=1111111111111111111111
          Direct CPHF calculation.
          Differentiating once with respect to electric field.
                with respect to dipole field.
          Differentiating once with respect to nuclear coordinates.
          Electric field/nuclear overlap derivatives assumed to be zero.
          Requested convergence is 1.0D-08 RMS, and 1.0D-07 maximum.
          NewPWx=T KeepS1=F KeepF1=F KeepIn=T MapXYZ=F SortEE=F KeepMc=T.
          MDV=      33495213 using IRadAn=       2.
 Keep J ints in memory in canonical form, NReq=888555.
 FoFCou: FMM=F IPFlag=           0 FMFlag=           0 FMFlg1=           0
         NFxFlg=           0 DoJE=F BraDBF=F KetDBF=F FulRan=T
         wScrn=  0.000000 ICntrl=     600 IOpCl=  2 I1Cent=           0 NGrid=           0
         NMat0=    1 NMatS0=    112 NMatT0=    0 NMatD0=    1 NMtDS0=    0 NMtDT0=    0
 Symmetry not used in FoFCou.
          Solving linear equations separately, MaxMat=       0.
          There are    69 degrees of freedom in the 1st order CPHF.  IDoFFX=5 NUNeed=    69.
 LinEq1:  Iter=  0 NonCon=    69 RMS=2.08D-01 Max=3.60D+00 NDo=    69
 AX will form    69 AO Fock derivatives at one time.
 LinEq1:  Iter=  1 NonCon=    69 RMS=3.22D-02 Max=3.72D-01 NDo=    69
 LinEq1:  Iter=  2 NonCon=    69 RMS=8.93D-03 Max=2.01D-01 NDo=    69
 LinEq1:  Iter=  3 NonCon=    69 RMS=1.64D-03 Max=2.31D-02 NDo=    69
 LinEq1:  Iter=  4 NonCon=    69 RMS=2.65D-04 Max=4.07D-03 NDo=    69
 LinEq1:  Iter=  5 NonCon=    69 RMS=5.53D-05 Max=9.31D-04 NDo=    69
 LinEq1:  Iter=  6 NonCon=    69 RMS=1.35D-05 Max=2.74D-04 NDo=    69
 LinEq1:  Iter=  7 NonCon=    52 RMS=3.08D-06 Max=5.78D-05 NDo=    69
 LinEq1:  Iter=  8 NonCon=    19 RMS=5.95D-07 Max=4.77D-06 NDo=    69
 LinEq1:  Iter=  9 NonCon=     4 RMS=1.12D-07 Max=8.59D-07 NDo=    69
 LinEq1:  Iter= 10 NonCon=     2 RMS=2.01D-08 Max=2.38D-07 NDo=    69
 LinEq1:  Iter= 11 NonCon=     0 RMS=3.89D-09 Max=8.67D-08 NDo=    69
 Linear equations converged to 1.000D-08 1.000D-07 after    11 iterations.
 FullF1:  Do perturbations    1 to     3.
 Isotropic polarizability for W=    0.000000       64.16 Bohr**3.
 End of Minotr F.D. properties file   721 does not exist.
 End of Minotr F.D. properties file   722 does not exist.
 End of Minotr F.D. properties file   788 does not exist.
 Leave Link 1002 at Mon Feb 15 21:54:31 2021, MaxMem=    33554432 cpu:         0.4
 (Enter /cm/shared/apps/Gaussian09/g09/l601.exe)
 Copying SCF densities to generalized density rwf, IOpCl= 1 IROHF=0.

 **********************************************************************

            Population analysis using the SCF density.

 **********************************************************************

 Alpha  occ. eigenvalues --   -1.25229  -1.16550  -1.10532  -1.06048  -1.00257
 Alpha  occ. eigenvalues --   -0.96059  -0.88099  -0.82284  -0.75841  -0.70662
 Alpha  occ. eigenvalues --   -0.69422  -0.65022  -0.62513  -0.59827  -0.59551
 Alpha  occ. eigenvalues --   -0.57833  -0.55564  -0.54401  -0.52226  -0.50629
 Alpha  occ. eigenvalues --   -0.49445  -0.48881  -0.47260  -0.45204  -0.44609
 Alpha  occ. eigenvalues --   -0.43530  -0.39883  -0.38890  -0.37023
 Alpha virt. eigenvalues --    0.00721   0.01748   0.02696   0.10746   0.12301
 Alpha virt. eigenvalues --    0.13008   0.13799   0.14107   0.15020   0.15546
 Alpha virt. eigenvalues --    0.16650   0.18265   0.18351   0.19511   0.19818
 Alpha virt. eigenvalues --    0.19992   0.20384   0.20552   0.21456   0.21678
 Alpha virt. eigenvalues --    0.22112   0.23133   0.23720
  Beta  occ. eigenvalues --   -1.19893  -1.16553  -1.07702  -1.03277  -0.99453
  Beta  occ. eigenvalues --   -0.95501  -0.87694  -0.82175  -0.75736  -0.69976
  Beta  occ. eigenvalues --   -0.67923  -0.62411  -0.60166  -0.59182  -0.58223
  Beta  occ. eigenvalues --   -0.57340  -0.55237  -0.54285  -0.52173  -0.50442
  Beta  occ. eigenvalues --   -0.49547  -0.48879  -0.47275  -0.45273  -0.44648
  Beta  occ. eigenvalues --   -0.43562  -0.37089  -0.35978  -0.35137
  Beta virt. eigenvalues --   -0.00800   0.02635   0.03981   0.10742   0.12307
  Beta virt. eigenvalues --    0.12996   0.13647   0.14304   0.14868   0.15295
  Beta virt. eigenvalues --    0.16646   0.18120   0.18322   0.19398   0.19697
  Beta virt. eigenvalues --    0.19966   0.20234   0.20509   0.21291   0.21585
  Beta virt. eigenvalues --    0.22075   0.23111   0.23728
          Condensed to atoms (all electrons):
               1          2          3          4          5          6
     1  C    4.265374   0.000000   0.000000   0.000000   0.000000   0.000000
     2  C    0.000000   4.204328   0.000000   0.000000   0.000000   0.000000
     3  C    0.000000   0.000000   4.452289   0.000000   0.000000   0.000000
     4  C    0.000000   0.000000   0.000000   3.382076   0.000000   0.000000
     5  C    0.000000   0.000000   0.000000   0.000000   4.156809   0.000000
     6  C    0.000000   0.000000   0.000000   0.000000   0.000000   4.275884
     7  H    0.000000   0.000000   0.000000   0.000000   0.000000   0.000000
     8  H    0.000000   0.000000   0.000000   0.000000   0.000000   0.000000
     9  H    0.000000   0.000000   0.000000   0.000000   0.000000   0.000000
    10  H    0.000000   0.000000   0.000000   0.000000   0.000000   0.000000
    11  H    0.000000   0.000000   0.000000   0.000000   0.000000   0.000000
    12  H    0.000000   0.000000   0.000000   0.000000   0.000000   0.000000
    13  C    0.000000   0.000000   0.000000   0.000000   0.000000   0.000000
    14  H    0.000000   0.000000   0.000000   0.000000   0.000000   0.000000
    15  H    0.000000   0.000000   0.000000   0.000000   0.000000   0.000000
    16  H    0.000000   0.000000   0.000000   0.000000   0.000000   0.000000
    17  H    0.000000   0.000000   0.000000   0.000000   0.000000   0.000000
    18  H    0.000000   0.000000   0.000000   0.000000   0.000000   0.000000
    19  H    0.000000   0.000000   0.000000   0.000000   0.000000   0.000000
    20  O    0.000000   0.000000   0.000000   0.000000   0.000000   0.000000
    21  O    0.000000   0.000000   0.000000   0.000000   0.000000   0.000000
    22  O    0.000000   0.000000   0.000000   0.000000   0.000000   0.000000
               7          8          9         10         11         12
     1  C    0.000000   0.000000   0.000000   0.000000   0.000000   0.000000
     2  C    0.000000   0.000000   0.000000   0.000000   0.000000   0.000000
     3  C    0.000000   0.000000   0.000000   0.000000   0.000000   0.000000
     4  C    0.000000   0.000000   0.000000   0.000000   0.000000   0.000000
     5  C    0.000000   0.000000   0.000000   0.000000   0.000000   0.000000
     6  C    0.000000   0.000000   0.000000   0.000000   0.000000   0.000000
     7  H    0.821571   0.000000   0.000000   0.000000   0.000000   0.000000
     8  H    0.000000   0.862812   0.000000   0.000000   0.000000   0.000000
     9  H    0.000000   0.000000   0.869551   0.000000   0.000000   0.000000
    10  H    0.000000   0.000000   0.000000   0.868110   0.000000   0.000000
    11  H    0.000000   0.000000   0.000000   0.000000   0.838150   0.000000
    12  H    0.000000   0.000000   0.000000   0.000000   0.000000   0.823959
    13  C    0.000000   0.000000   0.000000   0.000000   0.000000   0.000000
    14  H    0.000000   0.000000   0.000000   0.000000   0.000000   0.000000
    15  H    0.000000   0.000000   0.000000   0.000000   0.000000   0.000000
    16  H    0.000000   0.000000   0.000000   0.000000   0.000000   0.000000
    17  H    0.000000   0.000000   0.000000   0.000000   0.000000   0.000000
    18  H    0.000000   0.000000   0.000000   0.000000   0.000000   0.000000
    19  H    0.000000   0.000000   0.000000   0.000000   0.000000   0.000000
    20  O    0.000000   0.000000   0.000000   0.000000   0.000000   0.000000
    21  O    0.000000   0.000000   0.000000   0.000000   0.000000   0.000000
    22  O    0.000000   0.000000   0.000000   0.000000   0.000000   0.000000
              13         14         15         16         17         18
     1  C    0.000000   0.000000   0.000000   0.000000   0.000000   0.000000
     2  C    0.000000   0.000000   0.000000   0.000000   0.000000   0.000000
     3  C    0.000000   0.000000   0.000000   0.000000   0.000000   0.000000
     4  C    0.000000   0.000000   0.000000   0.000000   0.000000   0.000000
     5  C    0.000000   0.000000   0.000000   0.000000   0.000000   0.000000
     6  C    0.000000   0.000000   0.000000   0.000000   0.000000   0.000000
     7  H    0.000000   0.000000   0.000000   0.000000   0.000000   0.000000
     8  H    0.000000   0.000000   0.000000   0.000000   0.000000   0.000000
     9  H    0.000000   0.000000   0.000000   0.000000   0.000000   0.000000
    10  H    0.000000   0.000000   0.000000   0.000000   0.000000   0.000000
    11  H    0.000000   0.000000   0.000000   0.000000   0.000000   0.000000
    12  H    0.000000   0.000000   0.000000   0.000000   0.000000   0.000000
    13  C    4.656717   0.000000   0.000000   0.000000   0.000000   0.000000
    14  H    0.000000   0.833059   0.000000   0.000000   0.000000   0.000000
    15  H    0.000000   0.000000   0.843862   0.000000   0.000000   0.000000
    16  H    0.000000   0.000000   0.000000   0.842206   0.000000   0.000000
    17  H    0.000000   0.000000   0.000000   0.000000   0.818479   0.000000
    18  H    0.000000   0.000000   0.000000   0.000000   0.000000   0.782598
    19  H    0.000000   0.000000   0.000000   0.000000   0.000000   0.000000
    20  O    0.000000   0.000000   0.000000   0.000000   0.000000   0.000000
    21  O    0.000000   0.000000   0.000000   0.000000   0.000000   0.000000
    22  O    0.000000   0.000000   0.000000   0.000000   0.000000   0.000000
              19         20         21         22
     1  C    0.000000   0.000000   0.000000   0.000000
     2  C    0.000000   0.000000   0.000000   0.000000
     3  C    0.000000   0.000000   0.000000   0.000000
     4  C    0.000000   0.000000   0.000000   0.000000
     5  C    0.000000   0.000000   0.000000   0.000000
     6  C    0.000000   0.000000   0.000000   0.000000
     7  H    0.000000   0.000000   0.000000   0.000000
     8  H    0.000000   0.000000   0.000000   0.000000
     9  H    0.000000   0.000000   0.000000   0.000000
    10  H    0.000000   0.000000   0.000000   0.000000
    11  H    0.000000   0.000000   0.000000   0.000000
    12  H    0.000000   0.000000   0.000000   0.000000
    13  C    0.000000   0.000000   0.000000   0.000000
    14  H    0.000000   0.000000   0.000000   0.000000
    15  H    0.000000   0.000000   0.000000   0.000000
    16  H    0.000000   0.000000   0.000000   0.000000
    17  H    0.000000   0.000000   0.000000   0.000000
    18  H    0.000000   0.000000   0.000000   0.000000
    19  H    0.799213   0.000000   0.000000   0.000000
    20  O    0.000000   5.775301   0.000000   0.000000
    21  O    0.000000   0.000000   6.320654   0.000000
    22  O    0.000000   0.000000   0.000000   6.506999
          Atomic-Atomic Spin Densities.
               1          2          3          4          5          6
     1  C   -0.034726   0.000000   0.000000   0.000000   0.000000   0.000000
     2  C    0.000000   0.001724   0.000000   0.000000   0.000000   0.000000
     3  C    0.000000   0.000000  -0.000182   0.000000   0.000000   0.000000
     4  C    0.000000   0.000000   0.000000   0.000399   0.000000   0.000000
     5  C    0.000000   0.000000   0.000000   0.000000  -0.913634   0.000000
     6  C    0.000000   0.000000   0.000000   0.000000   0.000000   0.043978
     7  H    0.000000   0.000000   0.000000   0.000000   0.000000   0.000000
     8  H    0.000000   0.000000   0.000000   0.000000   0.000000   0.000000
     9  H    0.000000   0.000000   0.000000   0.000000   0.000000   0.000000
    10  H    0.000000   0.000000   0.000000   0.000000   0.000000   0.000000
    11  H    0.000000   0.000000   0.000000   0.000000   0.000000   0.000000
    12  H    0.000000   0.000000   0.000000   0.000000   0.000000   0.000000
    13  C    0.000000   0.000000   0.000000   0.000000   0.000000   0.000000
    14  H    0.000000   0.000000   0.000000   0.000000   0.000000   0.000000
    15  H    0.000000   0.000000   0.000000   0.000000   0.000000   0.000000
    16  H    0.000000   0.000000   0.000000   0.000000   0.000000   0.000000
    17  H    0.000000   0.000000   0.000000   0.000000   0.000000   0.000000
    18  H    0.000000   0.000000   0.000000   0.000000   0.000000   0.000000
    19  H    0.000000   0.000000   0.000000   0.000000   0.000000   0.000000
    20  O    0.000000   0.000000   0.000000   0.000000   0.000000   0.000000
    21  O    0.000000   0.000000   0.000000   0.000000   0.000000   0.000000
    22  O    0.000000   0.000000   0.000000   0.000000   0.000000   0.000000
               7          8          9         10         11         12
     1  C    0.000000   0.000000   0.000000   0.000000   0.000000   0.000000
     2  C    0.000000   0.000000   0.000000   0.000000   0.000000   0.000000
     3  C    0.000000   0.000000   0.000000   0.000000   0.000000   0.000000
     4  C    0.000000   0.000000   0.000000   0.000000   0.000000   0.000000
     5  C    0.000000   0.000000   0.000000   0.000000   0.000000   0.000000
     6  C    0.000000   0.000000   0.000000   0.000000   0.000000   0.000000
     7  H    0.001356   0.000000   0.000000   0.000000   0.000000   0.000000
     8  H    0.000000   0.000536   0.000000   0.000000   0.000000   0.000000
     9  H    0.000000   0.000000  -0.000255   0.000000   0.000000   0.000000
    10  H    0.000000   0.000000   0.000000  -0.000248   0.000000   0.000000
    11  H    0.000000   0.000000   0.000000   0.000000   0.000021   0.000000
    12  H    0.000000   0.000000   0.000000   0.000000   0.000000  -0.000064
    13  C    0.000000   0.000000   0.000000   0.000000   0.000000   0.000000
    14  H    0.000000   0.000000   0.000000   0.000000   0.000000   0.000000
    15  H    0.000000   0.000000   0.000000   0.000000   0.000000   0.000000
    16  H    0.000000   0.000000   0.000000   0.000000   0.000000   0.000000
    17  H    0.000000   0.000000   0.000000   0.000000   0.000000   0.000000
    18  H    0.000000   0.000000   0.000000   0.000000   0.000000   0.000000
    19  H    0.000000   0.000000   0.000000   0.000000   0.000000   0.000000
    20  O    0.000000   0.000000   0.000000   0.000000   0.000000   0.000000
    21  O    0.000000   0.000000   0.000000   0.000000   0.000000   0.000000
    22  O    0.000000   0.000000   0.000000   0.000000   0.000000   0.000000
              13         14         15         16         17         18
     1  C    0.000000   0.000000   0.000000   0.000000   0.000000   0.000000
     2  C    0.000000   0.000000   0.000000   0.000000   0.000000   0.000000
     3  C    0.000000   0.000000   0.000000   0.000000   0.000000   0.000000
     4  C    0.000000   0.000000   0.000000   0.000000   0.000000   0.000000
     5  C    0.000000   0.000000   0.000000   0.000000   0.000000   0.000000
     6  C    0.000000   0.000000   0.000000   0.000000   0.000000   0.000000
     7  H    0.000000   0.000000   0.000000   0.000000   0.000000   0.000000
     8  H    0.000000   0.000000   0.000000   0.000000   0.000000   0.000000
     9  H    0.000000   0.000000   0.000000   0.000000   0.000000   0.000000
    10  H    0.000000   0.000000   0.000000   0.000000   0.000000   0.000000
    11  H    0.000000   0.000000   0.000000   0.000000   0.000000   0.000000
    12  H    0.000000   0.000000   0.000000   0.000000   0.000000   0.000000
    13  C    0.001379   0.000000   0.000000   0.000000   0.000000   0.000000
    14  H    0.000000   0.025396   0.000000   0.000000   0.000000   0.000000
    15  H    0.000000   0.000000  -0.003156   0.000000   0.000000   0.000000
    16  H    0.000000   0.000000   0.000000  -0.019127   0.000000   0.000000
    17  H    0.000000   0.000000   0.000000   0.000000  -0.000052   0.000000
    18  H    0.000000   0.000000   0.000000   0.000000   0.000000  -0.000712
    19  H    0.000000   0.000000   0.000000   0.000000   0.000000   0.000000
    20  O    0.000000   0.000000   0.000000   0.000000   0.000000   0.000000
    21  O    0.000000   0.000000   0.000000   0.000000   0.000000   0.000000
    22  O    0.000000   0.000000   0.000000   0.000000   0.000000   0.000000
              19         20         21         22
     1  C    0.000000   0.000000   0.000000   0.000000
     2  C    0.000000   0.000000   0.000000   0.000000
     3  C    0.000000   0.000000   0.000000   0.000000
     4  C    0.000000   0.000000   0.000000   0.000000
     5  C    0.000000   0.000000   0.000000   0.000000
     6  C    0.000000   0.000000   0.000000   0.000000
     7  H    0.000000   0.000000   0.000000   0.000000
     8  H    0.000000   0.000000   0.000000   0.000000
     9  H    0.000000   0.000000   0.000000   0.000000
    10  H    0.000000   0.000000   0.000000   0.000000
    11  H    0.000000   0.000000   0.000000   0.000000
    12  H    0.000000   0.000000   0.000000   0.000000
    13  C    0.000000   0.000000   0.000000   0.000000
    14  H    0.000000   0.000000   0.000000   0.000000
    15  H    0.000000   0.000000   0.000000   0.000000
    16  H    0.000000   0.000000   0.000000   0.000000
    17  H    0.000000   0.000000   0.000000   0.000000
    18  H    0.000000   0.000000   0.000000   0.000000
    19  H   -0.000086   0.000000   0.000000   0.000000
    20  O    0.000000   0.354236   0.000000   0.000000
    21  O    0.000000   0.000000   0.543864   0.000000
    22  O    0.000000   0.000000   0.000000  -0.000646
 Mulliken charges and spin densities:
               1          2
     1  C   -0.265374  -0.034726
     2  C   -0.204328   0.001724
     3  C   -0.452289  -0.000182
     4  C    0.617924   0.000399
     5  C   -0.156809  -0.913634
     6  C   -0.275884   0.043978
     7  H    0.178429   0.001356
     8  H    0.137188   0.000536
     9  H    0.130449  -0.000255
    10  H    0.131890  -0.000248
    11  H    0.161850   0.000021
    12  H    0.176041  -0.000064
    13  C   -0.656717   0.001379
    14  H    0.166941   0.025396
    15  H    0.156138  -0.003156
    16  H    0.157794  -0.019127
    17  H    0.181521  -0.000052
    18  H    0.217402  -0.000712
    19  H    0.200787  -0.000086
    20  O    0.224699   0.354236
    21  O   -0.320654   0.543864
    22  O   -0.506999  -0.000646
 Sum of Mulliken charges =   0.00000   0.00000
 Mulliken charges and spin densities with hydrogens summed into heavy atoms:
               1          2
     1  C    0.050243  -0.032834
     2  C    0.058011   0.001221
     3  C   -0.114397  -0.000225
     4  C    0.617924   0.000399
     5  C    0.010133  -0.888238
     6  C    0.038048   0.021695
    13  C   -0.057007   0.000528
    20  O    0.224699   0.354236
    21  O   -0.320654   0.543864
    22  O   -0.506999  -0.000646
 APT charges:
               1
     1  C   -0.235585
     2  C   -0.146305
     3  C   -0.664796
     4  C    1.206800
     5  C   -0.231545
     6  C   -0.370388
     7  H    0.185025
     8  H    0.132901
     9  H    0.121255
    10  H    0.124045
    11  H    0.168488
    12  H    0.186952
    13  C   -0.943647
    14  H    0.152622
    15  H    0.164131
    16  H    0.162267
    17  H    0.217609
    18  H    0.253620
    19  H    0.237698
    20  O    0.501729
    21  O   -0.451316
    22  O   -0.771496
 Sum of APT charges =   0.00006
 APT charges with hydrogens summed into heavy atoms:
               1
     1  C    0.082341
     2  C    0.098995
     3  C   -0.309356
     4  C    1.206800
     5  C   -0.078923
     6  C   -0.043990
    13  C   -0.234720
    20  O    0.501729
    21  O   -0.451316
    22  O   -0.771496
 Charge=              0.0000 electrons
 Dipole moment (field-independent basis, Debye):
    X=             -2.5100    Y=              2.8591    Z=              1.5288  Tot=              4.1002
 N-N= 3.461044135375D+02 E-N=-6.186722266872D+02  KE=-3.488883841375D+01
  Exact polarizability:  57.796   3.930  90.403  -1.005   8.232  44.273
 Approx polarizability:  45.378   2.800  58.883  -3.122   5.941  28.942
 Leave Link  601 at Mon Feb 15 21:54:31 2021, MaxMem=    33554432 cpu:         0.0
 (Enter /cm/shared/apps/Gaussian09/g09/l701.exe)
 Compute integral second derivatives.
 ... and contract with generalized density number  0.
 Leave Link  701 at Mon Feb 15 21:54:31 2021, MaxMem=    33554432 cpu:         0.1
 (Enter /cm/shared/apps/Gaussian09/g09/l702.exe)
 L702 exits ... SP integral derivatives will be done elsewhere.
 Leave Link  702 at Mon Feb 15 21:54:31 2021, MaxMem=    33554432 cpu:         0.0
 (Enter /cm/shared/apps/Gaussian09/g09/l703.exe)
 Compute integral second derivatives, UseDBF=F ICtDFT=           0.
 Integral derivatives from FoFJK, PRISM(SPDF).
 Calling FoFJK, ICntrl=    100127 FMM=F ISym2X=0 I1Cent= 0 IOpClX= 1 NMat=1 NMatS=1 NMatT=0.
 FoFJK:  IHMeth=40 ICntrl=  100127 DoSepK=F KAlg= 0 I1Cent=   0 FoldK=F
 IRaf=         0 NMat=   1 IRICut=       1 DoRegI=T DoRafI=F ISym2E= 0.
 FoFCou: FMM=F IPFlag=           0 FMFlag=      100000 FMFlg1=         800
         NFxFlg=           0 DoJE=F BraDBF=F KetDBF=F FulRan=T
         wScrn=  0.000000 ICntrl=  100127 IOpCl=  1 I1Cent=           0 NGrid=           0
         NMat0=    1 NMatS0=      1 NMatT0=    0 NMatD0=    1 NMtDS0=    0 NMtDT0=    0
 Symmetry not used in FoFCou.
 Leave Link  703 at Mon Feb 15 21:54:31 2021, MaxMem=    33554432 cpu:         0.0
 (Enter /cm/shared/apps/Gaussian09/g09/l716.exe)
 Dipole        =-9.87516042D-01 1.12484337D+00 6.01478662D-01
 Polarizability= 5.77955334D+01 3.92968341D+00 9.04025589D+01
                -1.00515407D+00 8.23245950D+00 4.42727001D+01
 HyperPolar    =-7.34741613D+01 7.33985719D+00 8.30980414D+00
                -5.14336597D+02 2.11189811D+01 1.28026126D+00
                -6.73244212D+01-8.55171351D+00-6.27776566D+00
                 6.90485999D+00
 -------------------------------------------------------------------
 Center     Atomic                   Forces (Hartrees/Bohr)
 Number     Number              X              Y              Z
 -------------------------------------------------------------------
      1        6           0.000000098    0.000000510   -0.000000178
      2        6          -0.000000074   -0.000000010    0.000000218
      3        6           0.000000080    0.000000419   -0.000000351
      4        6          -0.000000490   -0.000000610    0.000000082
      5        6          -0.000000339   -0.000000271    0.000000035
      6        6           0.000000048   -0.000000408   -0.000000416
      7        1           0.000000028   -0.000000075   -0.000000023
      8        1          -0.000000104   -0.000000126   -0.000000053
      9        1           0.000000046    0.000000052   -0.000000030
     10        1           0.000000016   -0.000000085    0.000000024
     11        1          -0.000000088   -0.000000063    0.000000072
     12        1          -0.000000001   -0.000000148    0.000000200
     13        6          -0.000000167   -0.000000043   -0.000000099
     14        1           0.000000172    0.000000070    0.000000023
     15        1           0.000000122   -0.000000045    0.000000078
     16        1          -0.000000139    0.000000243    0.000000429
     17        1           0.000000535   -0.000000024   -0.000000140
     18        1          -0.000000219    0.000000196   -0.000000212
     19        1          -0.000000012    0.000000170    0.000000469
     20        8           0.000000227   -0.000000104   -0.000000037
     21        8          -0.000000032    0.000000221    0.000000026
     22        8           0.000000293    0.000000129   -0.000000116
 -------------------------------------------------------------------
 Cartesian Forces:  Max     0.000000610 RMS     0.000000221
 Leave Link  716 at Mon Feb 15 21:54:31 2021, MaxMem=    33554432 cpu:         0.0
 (Enter /cm/shared/apps/Gaussian09/g09/l103.exe)

 GradGradGradGradGradGradGradGradGradGradGradGradGradGradGradGradGradGrad
 Berny optimization.
 Search for a saddle point.
 Step number   1 out of a maximum of  100
 All quantities printed in internal units (Hartrees-Bohrs-Radians)
 Swapping is turned off.
 Second derivative matrix not updated -- analytic derivatives used.
 ITU=  0
     Eigenvalues ---   -0.00074   0.00012   0.00060   0.00084   0.00151
     Eigenvalues ---    0.00276   0.00530   0.01013   0.01184   0.01413
     Eigenvalues ---    0.01653   0.02296   0.02685   0.03474   0.03777
     Eigenvalues ---    0.04244   0.04399   0.04578   0.04735   0.05081
     Eigenvalues ---    0.05395   0.05568   0.05696   0.06014   0.06820
     Eigenvalues ---    0.07109   0.07635   0.07895   0.08246   0.09203
     Eigenvalues ---    0.10669   0.11865   0.12697   0.13080   0.15684
     Eigenvalues ---    0.15940   0.17660   0.21661   0.26315   0.27324
     Eigenvalues ---    0.31294   0.35675   0.40630   0.48095   0.49191
     Eigenvalues ---    0.54211   0.55361   0.56855   0.58112   0.59486
     Eigenvalues ---    0.60653   0.61266   0.62235   0.64409   0.65799
     Eigenvalues ---    0.70166   0.73780   0.77513   0.88059   1.63315
 Eigenvectors required to have negative eigenvalues:
                          Z11       X12       Y9        Y11       Z10
   1                    0.43590  -0.43218   0.35352  -0.26752  -0.26388
                          X10       X19       Z17       Z3        Y12
   1                    0.25240   0.19224  -0.16283   0.15203  -0.15010
 RFO step:  Lambda0=1.526772090D-12 Lambda= 0.00000000D+00.
 Linear search not attempted -- option 19 set.
 TrRot= -0.000009  0.000004 -0.000003 -0.000002  0.000001 -0.000002
 Variable       Old X    -DE/DX   Delta X   Delta X   Delta X     New X
                                 (Linear)    (Quad)   (Total)
    X1        1.96603   0.00000   0.00000   0.00000   0.00000   1.96603
    Y1        2.46706   0.00000   0.00000   0.00003   0.00003   2.46709
    Z1        1.10157   0.00000   0.00000  -0.00003  -0.00003   1.10154
    X2       -0.67536   0.00000   0.00000  -0.00009  -0.00008  -0.67544
    Y2        3.20360   0.00000   0.00000  -0.00011  -0.00010   3.20350
    Z2        0.16714   0.00000   0.00000   0.00010   0.00009   0.16723
    X3       -1.74937   0.00000   0.00000  -0.00003  -0.00003  -1.74940
    Y3        1.72743   0.00000   0.00000  -0.00004  -0.00003   1.72740
    Z3       -2.10106   0.00000   0.00000   0.00002   0.00002  -2.10104
    X4       -0.24805   0.00000   0.00000   0.00000  -0.00001  -0.24806
    Y4       -0.55108   0.00000   0.00000   0.00000   0.00000  -0.55107
    Z4       -2.98755   0.00000   0.00000  -0.00002  -0.00002  -2.98757
    X5        0.39276   0.00000   0.00000   0.00007   0.00005   0.39281
    Y5       -1.62648   0.00000   0.00000   0.00006   0.00006  -1.62641
    Z5        2.87299   0.00000   0.00000   0.00012   0.00012   2.87311
    X6        1.95358   0.00000   0.00000   0.00020   0.00020   1.95378
    Y6        0.62343   0.00000   0.00000   0.00000   0.00000   0.62343
    Z6        3.35262   0.00000   0.00000  -0.00005  -0.00005   3.35257
    X7        3.11553   0.00000   0.00000  -0.00003  -0.00003   3.11550
    Y7        1.66909   0.00000   0.00000   0.00011   0.00010   1.66919
    Z7       -0.47054   0.00000   0.00000  -0.00009  -0.00009  -0.47064
    X8        2.99676   0.00000   0.00000  -0.00007  -0.00006   2.99670
    Y8        4.19747   0.00000   0.00000   0.00008   0.00007   4.19754
    Z8        1.67935   0.00000   0.00000  -0.00006  -0.00006   1.67928
    X9       -2.03791   0.00000   0.00000  -0.00003  -0.00003  -2.03794
    Y9        3.07194   0.00000   0.00000  -0.00031  -0.00029   3.07165
    Z9        1.75300   0.00000   0.00000   0.00012   0.00012   1.75312
   X10       -0.63932   0.00000   0.00000  -0.00026  -0.00024  -0.63956
   Y10        5.23585   0.00000   0.00000  -0.00007  -0.00006   5.23578
   Z10       -0.35599   0.00000   0.00000   0.00023   0.00022  -0.35577
   X11       -3.72473   0.00000   0.00000  -0.00003  -0.00004  -3.72476
   Y11        1.18683   0.00000   0.00000  -0.00006  -0.00004   1.18678
   Z11       -1.67389   0.00000   0.00000  -0.00003  -0.00003  -1.67392
   X12       -1.87617   0.00000   0.00000   0.00000   0.00000  -1.87617
   Y12        3.02885   0.00000   0.00000   0.00002   0.00003   3.02888
   Z12       -3.74929   0.00000   0.00000   0.00006   0.00006  -3.74923
   X13       -1.60914   0.00000   0.00000   0.00001  -0.00001  -1.60915
   Y13       -3.03652   0.00000   0.00000  -0.00001   0.00001  -3.03651
   Z13       -3.03563   0.00000   0.00000  -0.00010  -0.00010  -3.03573
   X14       -1.61012   0.00000   0.00000   0.00003   0.00002  -1.61010
   Y14       -1.67650   0.00000   0.00000   0.00013   0.00014  -1.67636
   Z14        2.64150   0.00000   0.00000   0.00041   0.00041   2.64191
   X15        3.93600   0.00000   0.00000   0.00024   0.00023   3.93623
   Y15        0.07513   0.00000   0.00000  -0.00007  -0.00008   0.07505
   Z15        3.79784   0.00000   0.00000  -0.00029  -0.00030   3.79755
   X16        1.24013   0.00000   0.00000   0.00044   0.00044   1.24058
   Y16        1.60126   0.00000   0.00000   0.00001   0.00001   1.60127
   Z16        5.07457   0.00000   0.00000   0.00005   0.00004   5.07462
   X17       -3.66687   0.00000   0.00000   0.00007   0.00004  -3.66682
   Y17       -2.88327   0.00000   0.00000   0.00003   0.00005  -2.88322
   Z17       -3.12492   0.00000   0.00000  -0.00127  -0.00127  -3.12619
   X18       -1.14063   0.00000   0.00000  -0.00094  -0.00097  -1.14160
   Y18       -4.16919   0.00000   0.00000   0.00043   0.00044  -4.16875
   Z18       -1.33889   0.00000   0.00000   0.00044   0.00044  -1.33845
   X19       -0.98121   0.00000   0.00000   0.00086   0.00083  -0.98038
   Y19       -4.19486   0.00000   0.00000  -0.00043  -0.00043  -4.19529
   Z19       -4.64628   0.00000   0.00000   0.00054   0.00053  -4.64575
   X20        1.81135   0.00000   0.00000  -0.00005  -0.00007   1.81128
   Y20       -3.83531   0.00000   0.00000   0.00001   0.00001  -3.83530
   Z20        2.64142   0.00000   0.00000  -0.00011  -0.00012   2.64130
   X21        0.62811   0.00000   0.00000  -0.00020  -0.00023   0.62788
   Y21       -5.74732   0.00000   0.00000   0.00007   0.00007  -5.74725
   Z21        2.11175   0.00000   0.00000   0.00002   0.00002   2.11177
   X22        1.91862   0.00000   0.00000   0.00001   0.00000   1.91862
   Y22       -0.36741   0.00000   0.00000   0.00003   0.00003  -0.36738
   Z22       -3.70973   0.00000   0.00000   0.00001   0.00001  -3.70972
         Item               Value     Threshold  Converged?
 Maximum Force            0.000001     0.000450     YES
 RMS     Force            0.000000     0.000300     YES
 Maximum Displacement     0.001274     0.001800     YES
 RMS     Displacement     0.000277     0.001200     YES
 Predicted change in Energy=-3.054888D-10
 Optimization completed.
    -- Stationary point found.
 Lowest energy point so far.  Saving SCF results.
 GradGradGradGradGradGradGradGradGradGradGradGradGradGradGradGradGradGrad

 Largest change from initial coordinates is atom    0       0.000 Angstoms.
 Leave Link  103 at Mon Feb 15 21:54:31 2021, MaxMem=    33554432 cpu:         0.0
 (Enter /cm/shared/apps/Gaussian09/g09/l202.exe)
                          Input orientation:                          
 ---------------------------------------------------------------------
 Center     Atomic      Atomic             Coordinates (Angstroms)
 Number     Number       Type             X           Y           Z
 ---------------------------------------------------------------------
      1          6           0        1.040378    1.305511    0.582926
      2          6           0       -0.357386    1.695271    0.088448
      3          6           0       -0.925726    0.914114   -1.111832
      4          6           0       -0.131262   -0.291617   -1.580941
      5          6           0        0.207837   -0.860694    1.520320
      6          6           0        1.033791    0.329904    1.774131
      7          1           0        1.648666    0.883247   -0.249000
      8          1           0        1.585816    2.221204    0.888672
      9          1           0       -1.078416    1.625601    0.927649
     10          1           0       -0.338313    2.770690   -0.188383
     11          1           0       -1.971040    0.628042   -0.885787
     12          1           0       -0.992824    1.602798   -1.984039
     13          6           0       -0.851519   -1.606857   -1.606386
     14          1           0       -0.852038   -0.887163    1.397824
     15          1           0        2.082841    0.039758    2.009732
     16          1           0        0.656251    0.847351    2.685349
     17          1           0       -1.940422   -1.525761   -1.653636
     18          1           0       -0.603597   -2.206239   -0.708508
     19          1           0       -0.519236   -2.219825   -2.458705
     20          8           0        0.958527   -2.029558    1.397778
     21          8           0        0.332382   -3.041353    1.117491
     22          8           0        1.015292   -0.194425   -1.963105
 ---------------------------------------------------------------------
                    Distance matrix (angstroms):
                    1          2          3          4          5
     1  C    0.000000
     2  C    1.533025   0.000000
     3  C    2.625064   1.540743   0.000000
     4  C    2.933578   2.604941   1.518230   0.000000
     5  C    2.502854   2.983738   3.370925   3.171223   0.000000
     6  C    1.539747   2.577039   3.536918   3.605571   1.471103
     7  H    1.113742   2.190319   2.715313   2.514461   2.871900
     8  H    1.108818   2.166333   3.466748   3.919390   3.434516
     9  H    2.170387   1.108601   2.165412   3.296339   2.861358
    10  H    2.154636   1.110642   2.155153   3.370432   4.050296
    11  H    3.418292   2.166100   1.107075   2.171128   3.571161
    12  H    3.288100   2.169685   1.113343   2.119808   4.448698
    13  C    4.105393   3.744420   2.570094   1.499758   3.384566
    14  H    3.008840   2.937365   3.090049   3.122056   1.067259
    15  H    2.173623   3.519483   4.422684   4.231429   2.136815
    16  H    2.185783   2.913816   4.114085   4.485382   2.115605
    17  H    4.680115   3.989474   2.697434   2.191222   3.889901
    18  H    4.086911   3.989679   3.162758   2.156390   2.727011
    19  H    4.910388   4.673560   3.435240   2.153829   4.267143
    20  O    3.434147   4.161769   4.302762   3.616745   1.394559
    21  O    4.436468   4.895949   4.711522   3.880406   2.221048
    22  O    2.955116   3.108708   2.391877   1.212469   3.637327
                    6          7          8          9         10
     6  C    0.000000
     7  H    2.185708   0.000000
     8  H    2.160043   1.757378   0.000000
     9  H    2.618546   3.061465   2.730274   0.000000
    10  H    3.419293   2.741204   2.272500   1.761962   0.000000
    11  H    4.024060   3.684142   4.282300   2.253986   2.782644
    12  H    4.455476   3.241232   3.909511   2.913035   2.239807
    13  C    4.328202   3.780746   5.178800   4.113587   4.630014
    14  H    2.275788   3.478491   3.983003   2.566378   4.019932
    15  H    1.113642   2.449868   2.502502   3.698560   4.260480
    16  H    1.113825   3.097835   2.445324   2.589257   3.598156
    17  H    4.902961   4.545093   5.739114   4.163793   4.813856
    18  H    3.908524   3.850813   5.191027   4.193502   5.011061
    19  H    5.179760   4.383110   5.946336   5.154355   5.485648
    20  O    2.390474   3.416519   4.326853   4.210742   5.219203
    21  O    3.505499   4.359173   5.414606   4.879226   5.994579
    22  O    3.773883   2.121484   3.780660   4.006565   3.711306
                   11         12         13         14         15
    11  H    0.000000
    12  H    1.764430   0.000000
    13  C    2.601416   3.234884   0.000000
    14  H    2.960218   4.201990   3.089213   0.000000
    15  H    5.016379   5.277596   4.939445   3.138013   0.000000
    16  H    4.438893   5.009325   5.168704   2.634615   1.773083
    17  H    2.286787   3.285573   1.092940   3.302090   5.661957
    18  H    3.151901   4.035745   1.107659   2.497663   4.432864
    19  H    3.562605   3.880984   1.101176   4.093844   5.643000
    20  O    4.567261   5.332773   3.532696   2.140844   2.433236
    21  O    4.773189   5.739669   3.298319   2.474262   3.654237
    22  O    3.279519   2.694991   2.367952   3.906744   4.120429
                   16         17         18         19         20
    16  H    0.000000
    17  H    5.585800   0.000000
    18  H    4.736021   1.772969   0.000000
    19  H    6.103329   1.774720   1.752282   0.000000
    20  O    3.166357   4.238967   2.628286   4.134301   0.000000
    21  O    4.205364   3.891247   2.215343   3.766874   1.222435
    22  O    4.777272   3.256451   2.870925   2.588946   3.829683
                   21         22
    21  O    0.000000
    22  O    4.249875   0.000000
 Symmetry turned off by external request.
 Stoichiometry    C7H12O3
 Framework group  C1[X(C7H12O3)]
 Deg. of freedom    60
 Full point group                 C1      NOp   1
 Rotational constants (GHZ):      1.5231139      1.1353537      0.7914389
 Leave Link  202 at Mon Feb 15 21:54:31 2021, MaxMem=    33554432 cpu:         0.0
 (Enter /cm/shared/apps/Gaussian09/g09/l716.exe)
 Dipole        =-9.87516042D-01 1.12484337D+00 6.01478662D-01
 Polarizability= 5.77955334D+01 3.92968341D+00 9.04025589D+01
                -1.00515407D+00 8.23245950D+00 4.42727001D+01
 HyperPolar    =-7.34741613D+01 7.33985719D+00 8.30980414D+00
                -5.14336597D+02 2.11189811D+01 1.28026126D+00
                -6.73244212D+01-8.55171351D+00-6.27776566D+00
                 6.90485999D+00
 Full mass-weighted force constant matrix:
 Low frequencies ---  -97.0583   -1.0650   -0.6668   -0.3939    0.8360    1.2907
 Low frequencies ---    1.7971   41.6277   47.1612
 ******    1 imaginary frequencies (negative Signs) ****** 
 Diagonal vibrational polarizability:
       25.5198281      29.2009888      55.9620422
 Harmonic frequencies (cm**-1), IR intensities (KM/Mole), Raman scattering
 activities (A**4/AMU), depolarization ratios for plane and unpolarized
 incident light, reduced masses (AMU), force constants (mDyne/A),
 and normal coordinates:
                      1                      2                      3
                      A                      A                      A
 Frequencies --    -97.0583                41.6276                47.1611
 Red. masses --      1.9228                 2.1423                 5.0587
 Frc consts  --      0.0107                 0.0022                 0.0066
 IR Inten    --      0.7744                 1.1308                 0.9501
  Atom  AN      X      Y      Z        X      Y      Z        X      Y      Z
     1   6     0.05  -0.02   0.00    -0.01   0.02  -0.02     0.00   0.08   0.02
     2   6     0.10   0.08  -0.06    -0.07  -0.07   0.06    -0.02   0.00   0.01
     3   6    -0.07  -0.11   0.14    -0.03  -0.03   0.02     0.00  -0.08   0.05
     4   6     0.00  -0.01   0.01     0.02   0.02  -0.04     0.00  -0.10   0.12
     5   6    -0.03   0.01  -0.02     0.05   0.02   0.06     0.02   0.07   0.01
     6   6    -0.04   0.01   0.02     0.13  -0.01  -0.05     0.05   0.05   0.00
     7   1     0.05  -0.08   0.02    -0.02   0.09  -0.07     0.03   0.12   0.01
     8   1     0.10  -0.05  -0.01    -0.06   0.05  -0.03    -0.06   0.10   0.04
     9   1     0.12   0.37  -0.02    -0.03  -0.21   0.08    -0.01   0.02   0.02
    10   1     0.27   0.01  -0.30    -0.18  -0.05   0.14    -0.06  -0.01  -0.05
    11   1     0.03  -0.27   0.43    -0.02  -0.08  -0.01     0.00  -0.07   0.07
    12   1    -0.42  -0.18   0.11    -0.04   0.01   0.05     0.00  -0.14   0.01
    13   6     0.06  -0.04  -0.06     0.08  -0.02  -0.05    -0.09  -0.05  -0.05
    14   1    -0.03   0.01  -0.05     0.03   0.07   0.18     0.00   0.07   0.17
    15   1    -0.06   0.00   0.09     0.16  -0.06  -0.21     0.06   0.04  -0.07
    16   1    -0.09   0.03  -0.02     0.29  -0.02   0.02     0.10   0.04   0.03
    17   1     0.06  -0.09  -0.18     0.10  -0.05  -0.48    -0.06   0.03  -0.49
    18   1    -0.01  -0.03  -0.03    -0.24   0.16   0.15    -0.49   0.01   0.11
    19   1     0.17  -0.04  -0.02     0.42  -0.16   0.18     0.21  -0.16   0.14
    20   8    -0.03   0.01   0.01    -0.03  -0.02  -0.01     0.01   0.08  -0.21
    21   8    -0.02   0.01  -0.01    -0.13   0.01   0.09    -0.04   0.11  -0.21
    22   8    -0.02   0.07  -0.03     0.01   0.08  -0.06     0.07  -0.17   0.29
                      4                      5                      6
                      A                      A                      A
 Frequencies --     72.4677                99.1154               137.7746
 Red. masses --      2.6469                 2.2561                 2.5503
 Frc consts  --      0.0082                 0.0131                 0.0285
 IR Inten    --      4.0672                 4.4769                 3.6435
  Atom  AN      X      Y      Z        X      Y      Z        X      Y      Z
     1   6     0.02  -0.12   0.02     0.00  -0.01   0.01    -0.02   0.04   0.01
     2   6     0.04  -0.05   0.00    -0.01  -0.05   0.02     0.00   0.07  -0.03
     3   6     0.03   0.02  -0.04     0.01  -0.05   0.02     0.02   0.04  -0.01
     4   6    -0.02   0.00  -0.07     0.04  -0.03   0.01     0.03   0.01   0.07
     5   6    -0.04  -0.01   0.20    -0.02   0.04   0.09    -0.03  -0.03  -0.12
     6   6    -0.07   0.03   0.15     0.04   0.02   0.03    -0.05  -0.03  -0.05
     7   1    -0.03  -0.27   0.08     0.00  -0.02   0.01     0.02   0.10   0.00
     8   1     0.11  -0.13  -0.09    -0.01   0.01  -0.02    -0.03   0.02   0.09
     9   1     0.02  -0.04  -0.02    -0.01  -0.08   0.03    -0.01   0.11  -0.04
    10   1     0.09  -0.04   0.03    -0.05  -0.04   0.04     0.04   0.06  -0.06
    11   1     0.02   0.06  -0.07     0.01  -0.08   0.01     0.01   0.06  -0.04
    12   1     0.09   0.06  -0.02    -0.01  -0.05   0.02     0.06   0.01  -0.04
    13   6    -0.04   0.01   0.01     0.11  -0.07   0.10     0.08  -0.02   0.28
    14   1    -0.05  -0.07   0.36    -0.04   0.06   0.24    -0.03  -0.03  -0.15
    15   1    -0.09   0.07   0.27     0.04  -0.02  -0.02    -0.05  -0.04  -0.04
    16   1    -0.15   0.13   0.05     0.11   0.05   0.04    -0.08  -0.08  -0.04
    17   1    -0.02   0.04  -0.34     0.08  -0.15   0.60     0.09  -0.06  -0.01
    18   1    -0.33   0.21   0.22     0.53  -0.20  -0.10    -0.14   0.21   0.49
    19   1     0.20  -0.19   0.25    -0.22   0.09  -0.14     0.31  -0.26   0.54
    20   8     0.03   0.06  -0.04    -0.05   0.05  -0.10    -0.02  -0.03  -0.06
    21   8     0.07   0.05  -0.07    -0.10   0.07  -0.10    -0.01  -0.05  -0.05
    22   8    -0.04  -0.02  -0.14     0.01   0.02  -0.07    -0.01   0.02  -0.04
                      7                      8                      9
                      A                      A                      A
 Frequencies --    159.5339               226.7727               266.5408
 Red. masses --      6.0242                 4.8681                 4.0210
 Frc consts  --      0.0903                 0.1475                 0.1683
 IR Inten    --      2.3964                 2.1357                 1.1074
  Atom  AN      X      Y      Z        X      Y      Z        X      Y      Z
     1   6    -0.02  -0.02  -0.02     0.01   0.16   0.20    -0.05   0.04   0.03
     2   6     0.02   0.07  -0.06    -0.01   0.00   0.14    -0.02   0.04  -0.08
     3   6    -0.01   0.04  -0.02     0.13  -0.08   0.12    -0.03   0.00  -0.05
     4   6     0.01   0.04   0.01     0.06  -0.08  -0.02    -0.01   0.00  -0.02
     5   6    -0.07  -0.07   0.07     0.00   0.06  -0.20     0.29  -0.07   0.02
     6   6    -0.08  -0.04  -0.03    -0.04   0.03   0.09    -0.04   0.13   0.12
     7   1     0.00  -0.03   0.00     0.07   0.28   0.19    -0.03  -0.03   0.09
     8   1     0.01  -0.05   0.02    -0.12   0.19   0.34    -0.06   0.07  -0.02
     9   1     0.01   0.16  -0.07    -0.04  -0.07   0.11    -0.06   0.14  -0.11
    10   1     0.12   0.05  -0.12    -0.12   0.00   0.13     0.05   0.02  -0.16
    11   1     0.00   0.02   0.02     0.13  -0.11   0.11    -0.02  -0.01  -0.03
    12   1    -0.05   0.01  -0.04     0.12  -0.06   0.13    -0.05  -0.02  -0.07
    13   6     0.01   0.04  -0.01    -0.08  -0.02  -0.06    -0.01   0.00   0.01
    14   1    -0.13  -0.20   0.67     0.02   0.08  -0.34     0.28  -0.12  -0.04
    15   1    -0.07  -0.04  -0.03    -0.06   0.02   0.16    -0.02   0.46   0.41
    16   1    -0.06  -0.02  -0.04    -0.15  -0.12   0.12    -0.43   0.11  -0.02
    17   1     0.01   0.04   0.11    -0.07   0.10  -0.09    -0.01  -0.01   0.04
    18   1     0.11  -0.01  -0.08    -0.17  -0.07  -0.07     0.02   0.01   0.01
    19   1    -0.08   0.11  -0.09    -0.12  -0.03  -0.07    -0.03  -0.01   0.00
    20   8     0.05   0.05  -0.40     0.01   0.07  -0.11     0.14  -0.17  -0.03
    21   8     0.01  -0.13   0.34    -0.01   0.02   0.11    -0.21   0.00   0.00
    22   8     0.04   0.03   0.08    -0.02  -0.14  -0.25    -0.01   0.01   0.00
                     10                     11                     12
                      A                      A                      A
 Frequencies --    287.3210               356.4256               397.2713
 Red. masses --      2.3780                 2.5734                 3.0381
 Frc consts  --      0.1157                 0.1926                 0.2825
 IR Inten    --      1.5524                 1.2372                 1.0233
  Atom  AN      X      Y      Z        X      Y      Z        X      Y      Z
     1   6    -0.10   0.11   0.08     0.02   0.05   0.12     0.00   0.05  -0.14
     2   6    -0.03   0.12  -0.08     0.07   0.05  -0.04    -0.04   0.15   0.13
     3   6     0.02  -0.02  -0.01     0.02   0.09  -0.08     0.09   0.08   0.12
     4   6     0.05   0.00  -0.03    -0.15  -0.04   0.02     0.01  -0.01   0.11
     5   6    -0.01  -0.05   0.17     0.00   0.01   0.01    -0.01  -0.05   0.08
     6   6     0.05  -0.05  -0.04     0.05  -0.04   0.05    -0.09   0.07  -0.12
     7   1     0.00   0.29   0.06     0.09   0.12   0.12    -0.16  -0.04  -0.20
     8   1    -0.22   0.13   0.27    -0.06   0.06   0.23     0.20  -0.04  -0.23
     9   1    -0.09   0.31  -0.13     0.01   0.13  -0.09     0.03   0.02   0.17
    10   1     0.09   0.08  -0.27     0.17   0.04  -0.09    -0.17   0.17   0.22
    11   1     0.06  -0.10   0.07    -0.07   0.35  -0.22     0.05   0.14   0.01
    12   1    -0.10  -0.08  -0.05     0.32   0.10  -0.11     0.25   0.05   0.08
    13   6    -0.05   0.04  -0.01     0.08  -0.17  -0.08     0.09  -0.05  -0.07
    14   1    -0.03  -0.06   0.36     0.01   0.05  -0.02    -0.04  -0.14   0.27
    15   1     0.11  -0.10  -0.32     0.06  -0.10  -0.04    -0.10   0.15  -0.01
    16   1     0.30  -0.11   0.10     0.14  -0.10   0.13    -0.19   0.16  -0.20
    17   1    -0.04   0.13   0.03     0.07  -0.40  -0.14     0.09  -0.15  -0.16
    18   1    -0.06   0.04  -0.01     0.16  -0.18  -0.11     0.08  -0.16  -0.14
    19   1    -0.13   0.02  -0.02     0.28  -0.04  -0.10     0.24   0.11  -0.14
    20   8     0.00  -0.06   0.05     0.00   0.01  -0.01     0.00  -0.06   0.02
    21   8     0.03  -0.04  -0.05     0.01   0.00   0.01    -0.01  -0.04  -0.03
    22   8     0.03  -0.06  -0.07    -0.15   0.02   0.03    -0.04  -0.10  -0.06
                     13                     14                     15
                      A                      A                      A
 Frequencies --    464.7140               500.7651               564.7988
 Red. masses --      2.8133                 2.5375                 4.4972
 Frc consts  --      0.3580                 0.3749                 0.8452
 IR Inten    --      9.7388                10.2044                 6.4934
  Atom  AN      X      Y      Z        X      Y      Z        X      Y      Z
     1   6     0.15   0.15  -0.02    -0.11  -0.10  -0.02    -0.02   0.03  -0.01
     2   6     0.08  -0.10  -0.03    -0.06   0.06  -0.01    -0.04   0.03  -0.01
     3   6     0.05  -0.07  -0.01     0.09  -0.05   0.02    -0.01  -0.01  -0.01
     4   6     0.01  -0.09   0.04     0.09  -0.12   0.17     0.01  -0.01   0.01
     5   6    -0.03  -0.02   0.06     0.02   0.00  -0.02     0.05   0.15   0.02
     6   6    -0.07   0.06  -0.08     0.03  -0.03   0.02     0.14   0.17   0.15
     7   1     0.31   0.33   0.02    -0.20  -0.22  -0.04    -0.14  -0.20   0.01
     8   1    -0.08   0.21   0.19     0.05  -0.15  -0.17     0.10   0.05  -0.32
     9   1     0.14  -0.30   0.01    -0.11   0.25  -0.06    -0.05   0.07  -0.02
    10   1    -0.16  -0.08   0.06     0.11   0.02  -0.15    -0.03   0.02  -0.06
    11   1     0.01   0.06  -0.07     0.00   0.12  -0.23    -0.01  -0.01  -0.05
    12   1     0.19  -0.09  -0.05     0.43  -0.15  -0.11     0.02  -0.03  -0.03
    13   6    -0.09  -0.04   0.01    -0.07  -0.03   0.00     0.00   0.00   0.00
[...]
 2,-0.00067112,-0.00047532,0.00053618,-0.00145512,-0.00566746,-0.004703
 05,0.00976813,-0.01282669,0.13145217,0.00004111,-0.00035686,-0.0007998
 1,-0.00965899,0.00413848,-0.03390614,-0.00613020,0.08508311,-0.1381031
 1,-0.00578820,0.00810811,0.00727224,0.00004969,-0.00007293,0.00008618,
 0.00007322,-0.00000480,0.00007546,-0.00004092,-0.00004125,0.00010823,-
 0.00013711,-0.00007855,0.00002970,-0.00027479,-0.00075154,-0.00146011,
 -0.00044150,-0.00048226,-0.00005534,0.00606060,0.00900863,-0.00654494,
 0.01420288,-0.10310998,0.17640722,0.00024009,-0.00053108,-0.00067714,-
 0.00038080,0.00088804,-0.00014927,0.00900083,0.00528676,0.00384462,-0.
 09765530,-0.05990784,-0.00685625,0.00028874,0.00057346,-0.00055450,0.0
 0042609,-0.00042944,-0.00016016,-0.00008476,0.00062752,0.00088748,-0.0
 0000792,0.00007864,0.00009707,-0.00007163,0.00003453,0.00005696,-0.000
 08502,0.00008865,0.00022859,-0.00072090,0.00028598,0.00022395,-0.00052
 535,-0.00040519,-0.00034673,0.45252975,0.00010697,-0.00047952,-0.00020
 284,0.00204779,-0.00129976,0.00047211,-0.00431106,-0.03678113,-0.00939
 812,-0.04646066,-0.18202428,-0.00564874,-0.00173576,0.00190138,-0.0001
 7959,-0.00045683,0.00086238,-0.00042903,0.00030070,0.00031427,0.000887
 14,0.00007334,0.00022751,-0.00002354,-0.00029859,-0.00025201,0.0002599
 9,-0.00024344,0.00014731,-0.00036667,-0.00021015,-0.00241324,-0.000452
 97,0.00052207,-0.00017955,-0.00108979,0.03109311,0.44202394,-0.0005938
 8,-0.00020870,0.00001697,-0.00111200,0.00051118,0.00025532,0.00207728,
 -0.01320571,0.01642532,-0.00832938,-0.00668346,-0.07685853,0.00006894,
 -0.00015791,-0.00196056,-0.00057097,-0.00050712,-0.00002496,0.00017671
 ,-0.00011173,-0.00077763,0.00007291,0.00002634,0.00000475,0.00010473,0
 .00049605,0.00010041,0.00006923,0.00019618,0.00016779,-0.00016754,-0.0
 0006152,-0.00094847,0.00121684,-0.00225749,-0.00166287,-0.01128007,0.0
 1001914,0.37891030,0.00003147,-0.00005939,0.00024586,-0.00010729,-0.00
 011519,0.00015556,-0.00056424,-0.00011516,0.00028881,0.00109346,-0.000
 38896,0.00001673,-0.22194259,-0.00969392,-0.02264783,-0.01907763,-0.00
 918166,-0.00387162,-0.00007320,-0.00003011,0.00004701,-0.00002437,0.00
 001002,-0.00009918,0.00021094,0.00002052,-0.00003375,0.00002618,0.0000
 0914,-0.00001301,0.00011817,0.00015304,-0.00025156,0.00003377,0.000008
 58,-0.00000688,-0.00091279,0.00048584,0.00018089,0.26840480,-0.0000696
 6,0.00007547,-0.00013797,0.00002680,-0.00032728,0.00026534,0.00009095,
 -0.00009917,-0.00017023,-0.00002007,0.00043669,0.00020846,-0.01337206,
 -0.03090942,-0.00195506,-0.02282167,-0.00398046,-0.00414124,-0.0000213
 8,-0.00004523,-0.00008474,0.00001403,0.00004454,-0.00001254,0.00014160
 ,-0.00069053,0.00009979,-0.00000004,-0.00002709,-0.00001299,0.00006764
 ,-0.00002802,0.00015178,0.00000906,-0.00000460,0.00002269,-0.00017172,
 -0.00032021,0.00017182,0.00268260,0.04774347,-0.00038749,-0.00024031,-
 0.00013355,0.00016761,0.00020172,-0.00018549,0.00000201,-0.00044806,0.
 00027614,0.00064745,0.00052326,-0.00128735,-0.02307370,-0.00133242,-0.
 03119899,-0.00546658,-0.00275668,0.00339182,0.00010929,0.00021412,0.00
 005438,0.00002879,-0.00000309,0.00000326,-0.00008270,0.00020108,0.0001
 9055,-0.00001784,0.00004665,0.00003123,-0.00017043,0.00019968,-0.00018
 588,-0.00002016,0.00004737,-0.00006919,-0.00010121,0.00028988,0.000675
 20,0.02769681,0.00583204,0.01864006,-0.00494662,0.00925617,-0.00985040
 ,0.00026308,-0.00019647,0.00007869,0.00006060,0.00006290,0.00018145,0.
 00027844,-0.00013159,-0.00025034,-0.03124546,-0.01089595,-0.00777572,-
 0.18895222,0.04264200,-0.03390809,0.00062245,-0.00023826,-0.00028470,0
 .00043817,0.00026545,0.00003470,-0.00004743,0.00004227,-0.00001093,0.0
 0002878,0.00007709,-0.00001711,-0.00002931,0.00001000,-0.00000670,-0.0
 0001529,0.00001614,-0.00004261,-0.00001922,-0.00001237,0.00019445,-0.0
 0074961,-0.00102566,-0.00043975,0.23812828,0.01620259,-0.00943052,0.01
 268588,0.00016477,-0.00115404,0.00160571,0.00008046,-0.00011325,-0.000
 02654,-0.00011882,0.00014819,0.00000039,-0.02575410,0.00200339,-0.0050
 5422,0.04347852,-0.04659222,0.00874752,0.00015240,0.00052720,0.0003070
 6,0.00039265,-0.00078096,0.00053265,-0.00014413,0.00004278,0.00005390,
 0.00024526,-0.00007092,0.00007580,-0.00000440,-0.00000181,0.00001379,0
 .00000936,0.00002011,0.00000373,0.00008725,-0.00011561,-0.00000874,-0.
 00100322,-0.00237426,-0.00037592,-0.04700122,0.06083596,-0.01955428,0.
 01481994,-0.01189173,-0.00010395,0.00172001,-0.00174089,0.00011172,-0.
 00010854,0.00000239,-0.00057893,0.00010668,-0.00004299,-0.01049729,-0.
 00245529,0.00115258,-0.03172954,0.00825882,-0.04069998,-0.00059146,0.0
 0043059,-0.00084174,-0.00014059,0.00052542,0.00002520,0.00016902,-0.00
 001418,-0.00000339,-0.00033762,0.00013824,-0.00008734,-0.00002704,0.00
 000502,-0.00000154,-0.00001179,0.00001262,-0.00002307,0.00020633,0.000
 03693,0.00008150,-0.00040446,-0.00048844,0.00072349,0.04805929,-0.0160
 8010,0.05167826,0.00265262,-0.00123152,0.00510232,-0.00006642,-0.00001
 212,-0.00029697,-0.00013340,0.00012848,0.00017510,0.00024051,-0.000254
 73,-0.00010077,0.00579424,-0.00959278,-0.00886534,-0.05381414,0.029225
 44,0.04790020,0.00028889,0.00013246,0.00012828,0.00013970,-0.00034390,
 0.00040978,-0.00031063,0.00023517,-0.00038052,0.00001740,0.00003180,-0
 .00005844,0.00000205,-0.00000515,-0.00005492,0.00000908,0.00000344,-0.
 00002297,-0.00010153,0.00016866,-0.00003392,0.00000248,-0.00046144,-0.
 00026820,-0.01384162,0.01313355,0.01518998,0.06045511,-0.00416687,0.00
 531829,0.01310829,-0.00010345,-0.00004120,0.00012891,0.00010985,-0.000
 12573,-0.00001931,-0.00019395,0.00006332,-0.00006128,-0.00218326,-0.02
 539383,-0.02207819,0.02922300,-0.06954046,-0.06976418,-0.00002416,-0.0
 0114154,0.00141966,-0.00033032,0.00032755,0.00083085,0.00019077,0.0001
 2888,0.00012449,-0.00004265,0.00003120,0.00008174,-0.00001015,0.000026
 05,-0.00000273,-0.00001975,0.00001485,-0.00000729,0.00005594,-0.000030
 51,0.00008364,-0.00034496,0.00008381,-0.00038612,0.00828809,-0.0023082
 9,-0.00639271,-0.02943841,0.09464960,0.00958305,0.00172789,-0.03409538
 ,-0.00008204,-0.00030052,-0.00039085,0.00012146,-0.00001073,0.00021966
 ,0.00011756,-0.00009058,-0.00025077,-0.00288657,-0.01891150,-0.0097416
 0,0.04812106,-0.06564702,-0.14669779,0.00021485,0.00164192,-0.00199339
 ,0.00046421,0.00028146,-0.00003761,-0.00056210,0.00027188,-0.00020237,
 0.00011197,0.00007001,0.00004184,-0.00006273,0.00002051,-0.00001248,-0
 .00001820,0.00003265,-0.00004498,0.00008149,0.00005511,0.00022253,-0.0
 0042297,-0.00005005,0.00029759,0.00436337,-0.00240098,0.00166421,-0.05
 878947,0.08364602,0.19121441,0.00002391,0.00012837,0.00010276,-0.00025
 186,0.00020092,-0.00002060,-0.00037761,0.00065407,0.00026364,-0.025353
 70,-0.01507915,-0.00115658,-0.00010757,-0.00002387,0.00018519,0.000002
 00,0.00006239,0.00006792,-0.00005395,-0.00009389,-0.00011360,-0.000016
 87,-0.00003331,-0.00001180,0.00008287,0.00001034,-0.00002083,0.0000514
 9,-0.00002678,0.00004617,0.00059341,-0.00029272,-0.00010720,0.00007072
 ,-0.00004107,0.00012773,-0.21937093,0.01434552,-0.00834188,0.00015863,
 -0.00000125,-0.00010674,-0.00002380,-0.00000913,-0.00003758,0.00001599
 ,-0.00001579,-0.00004540,0.26704181,0.00003247,0.00003366,-0.00003024,
 -0.00015530,0.00007328,-0.00002828,0.00009313,-0.00177952,0.00032624,-
 0.02838146,-0.00184975,-0.00179174,0.00015108,-0.00020185,0.00002645,0
 .00008403,-0.00008694,0.00003746,-0.00003177,0.00001200,0.00002204,-0.
 00000743,-0.00001890,0.00001293,0.00002063,0.00002144,-0.00002423,-0.0
 0000550,-0.00002337,0.00003728,0.00038310,-0.00078144,-0.00049298,-0.0
 0010200,-0.00029175,-0.00003814,0.01775434,-0.03585775,-0.00098223,-0.
 00007126,0.00006038,-0.00007505,-0.00000565,0.00001153,0.00000047,-0.0
 0002273,0.00000687,-0.00001369,-0.01143121,0.04413898,0.00008762,0.000
 02148,-0.00001200,0.00004342,0.00006950,-0.00004260,-0.00003656,-0.000
 23239,-0.00077067,-0.00108294,0.00096690,0.00424626,0.00005233,0.00003
 447,0.00016043,0.00013475,0.00005185,0.00000155,-0.00003324,0.00000233
 ,0.00008352,-0.00002110,-0.00000757,0.00000348,-0.00002490,-0.00009122
 ,0.00001503,-0.00001141,-0.00002715,0.00000102,0.00011126,-0.00051744,
 0.00037636,0.00004186,0.00009507,0.00018338,-0.00856744,-0.00118928,-0
 .03459159,-0.00022557,-0.00008525,-0.00024609,-0.00003245,0.00001048,-
 0.00000602,-0.00000896,-0.00001768,-0.00003400,0.01050815,0.00066081,0
 .03216978,0.00006022,0.00010220,0.00008303,0.00015612,-0.00008730,0.00
 001295,-0.00099851,-0.00047931,-0.00095343,0.00859753,-0.00776349,0.00
 863443,-0.00055319,-0.00022301,-0.00012309,-0.00017641,0.00031049,0.00
 003220,0.00000606,-0.00009513,0.00006095,-0.00000836,-0.00000419,-0.00
 001988,0.00002014,-0.00003255,-0.00000834,-0.00000455,-0.00001305,-0.0
 0003404,0.00005731,0.00029099,0.00000011,-0.00004621,0.00014114,0.0000
 8059,-0.04233461,0.01902750,-0.03161346,0.00062599,0.00012796,0.000057
 13,-0.00003666,-0.00006171,-0.00007620,0.00005942,-0.00001808,-0.00005
 734,-0.01063297,0.01186845,-0.01862694,0.04446017,0.00000590,0.0001831
 9,0.00010146,0.00011687,-0.00029482,-0.00005830,-0.00053964,0.00043409
 ,-0.00220417,-0.00612255,-0.03046326,0.02416997,0.00080334,-0.00180373
 ,-0.00057178,0.00024406,-0.00019224,0.00004590,-0.00005885,-0.00011230
 ,-0.00015087,0.00000348,-0.00002992,0.00002322,0.00000381,-0.00003639,
 -0.00007316,0.00001160,-0.00005642,-0.00003795,0.00016193,-0.00028999,
 0.00004586,-0.00014953,0.00016253,0.00021045,0.02242910,-0.08212660,0.
 07977164,-0.00018319,-0.00008250,-0.00080796,0.00004170,0.00006207,-0.
 00001152,-0.00004952,0.00001388,-0.00000367,0.00609540,0.00022939,0.00
 604950,-0.02132890,0.10560149,0.00021478,-0.00003569,-0.00003644,0.000
 32432,0.00006284,-0.00001036,-0.00013192,-0.00123340,-0.00142980,0.006
 25431,0.01705399,-0.00027679,-0.00123999,0.00007822,-0.00036012,0.0001
 2710,0.00038624,0.00005218,-0.00002889,0.00006487,0.00032063,-0.000045
 56,0.00001897,-0.00002017,-0.00003316,-0.00016021,0.00006002,-0.000043
 09,-0.00001083,-0.00003642,-0.00012717,-0.00009161,0.00026440,-0.00001
 142,0.00017187,-0.00003590,-0.03397797,0.07704538,-0.14941095,0.000419
 91,-0.00043244,-0.00054763,-0.00011676,-0.00000296,-0.00003378,0.00006
 746,-0.00003919,-0.00010410,-0.00722137,0.00422600,-0.00220513,0.03949
 262,-0.09831277,0.17905011,-0.00002641,0.00001462,0.00002436,0.0000229
 9,0.00000197,0.00003507,-0.00047606,-0.00136473,0.00063680,0.00981809,
 -0.00742729,-0.00970007,-0.00007860,-0.00001175,0.00001230,-0.00008276
 ,0.00009383,-0.00001485,0.00003799,-0.00004873,-0.00001190,0.00000594,
 0.00000401,-0.00000769,0.00000246,-0.00000935,0.00001684,-0.00000377,0
 .00000828,-0.00001125,-0.00006241,0.00013555,0.00009513,0.00018588,-0.
 00013686,-0.00007769,-0.05449479,0.02924497,0.04361357,0.00009702,0.00
 002050,-0.00000457,0.00001111,-0.00002167,-0.00002243,0.00001797,-0.00
 000684,-0.00000697,-0.01281765,0.01229730,0.01758822,0.00501895,-0.001
 02113,-0.00152961,0.05531909,-0.00002015,0.00011591,0.00010855,-0.0000
 9527,-0.00005750,-0.00001036,-0.00027228,-0.00176674,0.00112865,-0.004
 44261,-0.03170462,-0.02338841,0.00015869,-0.00025866,0.00008918,0.0000
 6797,-0.00005314,0.00006960,-0.00003562,-0.00010505,-0.00020404,-0.000
 01141,-0.00002797,-0.00000375,0.00002947,0.00002582,-0.00001224,0.0000
 1378,-0.00002599,0.00000287,-0.00009459,-0.00003545,-0.00008520,0.0001
 9257,-0.00039245,-0.00017738,0.02947293,-0.08735425,-0.07826650,-0.000
 05149,-0.00000196,-0.00008576,-0.00000663,0.00001737,-0.00002102,-0.00
 001402,-0.00000282,-0.00001761,0.00643652,-0.00000790,-0.00547696,-0.0
 0140398,0.00648747,0.00444070,-0.03210251,0.11432345,0.00008539,0.0001
 2325,0.00007805,-0.00011639,0.00014577,-0.00004940,0.00007157,0.001197
 12,-0.00005788,-0.00402087,-0.01462323,-0.00048139,-0.00016722,0.00010
 160,0.00017268,0.00003994,0.00011382,0.00005603,-0.00006530,-0.0000886
 1,-0.00003552,-0.00003185,-0.00003132,-0.00000713,0.00002607,-0.000036
 11,-0.00000622,0.00001441,-0.00004011,0.00002666,0.00012661,-0.0000959
 9,0.00007001,-0.00000178,-0.00000005,0.00022485,0.04390121,-0.08081973
 ,-0.14467499,0.00006888,-0.00003211,-0.00012210,-0.00005014,-0.0000147
 3,-0.00003988,0.00000793,-0.00002234,-0.00005450,0.00582326,-0.0029662
 3,0.00035896,0.00449749,-0.00502128,-0.02465178,-0.05202109,0.10160800
 ,0.17019066,-0.00091240,-0.00172076,-0.00012957,0.00026493,0.00054512,
 -0.00026129,0.00003642,-0.00023197,-0.00055454,-0.00031049,0.00140843,
 0.00032267,-0.17009664,0.07816870,-0.00313981,0.01286964,-0.00606415,0
 .00098380,-0.00008633,0.00014756,-0.00002628,-0.00003186,-0.00018616,0
 .00019917,0.00004019,-0.00030279,0.00012734,-0.00000243,-0.00004551,-0
 .00004048,0.00003702,-0.00003766,0.00014498,0.00003008,0.00000176,0.00
 003776,0.00032108,-0.00090169,0.00051139,-0.02493415,0.03922306,0.0024
 3451,0.00005687,-0.00019432,-0.00023928,-0.00148588,-0.00159443,-0.000
 52546,-0.00007353,0.00008295,-0.00004650,-0.00101026,0.00007849,-0.001
 79217,-0.00009623,0.00004533,-0.00011254,0.33552394,0.00076852,0.00021
 886,-0.00034059,0.00029173,0.00111406,-0.00023462,-0.00068967,-0.00067
 507,-0.00198314,0.00073305,0.00411401,0.00322611,0.08971897,-0.0870477
 4,-0.00041912,-0.00660217,-0.04764771,-0.00803797,-0.00064146,0.000035
 03,0.00095685,-0.00044708,-0.00022657,-0.00018156,0.00022754,-0.000593
 50,0.00010320,-0.00005920,-0.00025406,-0.00003411,0.00026329,-0.000083
 99,0.00033763,0.00015850,0.00000798,0.00025621,0.00040016,-0.00520969,
 0.00022218,0.01996249,-0.01039783,-0.00154088,-0.00303621,-0.00052870,
 -0.00093219,-0.00089516,-0.00108331,-0.00100016,-0.00005456,0.00048050
 ,0.00010295,-0.00164277,0.00350379,-0.00247031,-0.00031848,0.00061718,
 -0.00032575,0.01801063,0.37393085,0.00026807,0.00060616,-0.00025752,0.
 00018498,0.00027679,-0.00009027,0.00006280,-0.00063759,-0.00040535,-0.
 00014524,0.00225649,-0.00014759,-0.00081367,-0.00344563,-0.02379965,0.
 00044441,-0.00837812,-0.00201252,-0.00009793,0.00030616,0.00030767,-0.
 00009671,0.00004012,-0.00013716,0.00001694,-0.00012213,0.00010011,-0.0
 0003504,-0.00002701,-0.00000359,-0.00004162,0.00003137,0.00007246,0.00
 002433,0.00004814,-0.00000039,0.00043940,-0.00163396,0.00106226,-0.000
 87772,0.00058218,0.01374365,-0.00069755,-0.00011936,-0.00013484,-0.000
 33740,-0.00116427,-0.00025954,-0.00021202,0.00010631,-0.00011421,-0.00
 142045,0.00074340,-0.00228858,-0.00014308,0.00004513,-0.00031083,0.044
 06380,0.07067547,0.04333764,-0.00026126,0.00013577,0.00011728,-0.00022
 142,-0.00055627,0.00011540,0.00037486,0.00048837,0.00085933,-0.0010587
 6,-0.00248366,-0.00101850,0.04149080,-0.01415378,0.00177120,0.00067296
 ,0.00371143,-0.00018443,0.00022267,-0.00008324,-0.00032427,0.00015151,
 0.00009169,0.00006784,-0.00011237,0.00029988,-0.00008105,0.00001556,0.
 00009896,0.00002841,-0.00012214,-0.00002380,-0.00013642,-0.00007850,-0
 .00002191,-0.00009159,0.00003707,0.00335925,-0.00201906,-0.00186439,-0
 .00445982,-0.00051445,0.00029704,0.00032306,0.00024481,0.00021464,0.00
 051394,0.00037955,0.00007806,-0.00028109,0.00016799,0.00014250,-0.0016
 1697,0.00190504,0.00002821,-0.00019195,0.00028134,-0.15027544,-0.11612
 815,-0.04051334,0.10972309,-0.00130542,-0.00089192,-0.00034766,-0.0002
 4229,-0.00073209,0.00014267,0.00023197,0.00022750,0.00128227,0.0010551
 0,-0.00163663,-0.00201582,-0.00952153,-0.13064634,-0.02645283,0.006088
 59,-0.00632985,-0.00230372,0.00052650,-0.00016589,-0.00060491,0.000305
 59,-0.00001386,0.00032074,-0.00016072,0.00043911,-0.00011121,0.0000297
 6,0.00018511,0.00001138,-0.00017413,0.00012288,-0.00024252,-0.00008790
 ,0.00002748,-0.00017928,-0.00020080,0.00157128,0.00184461,-0.00221545,
 0.00090007,0.00062440,0.00177985,-0.00008192,0.00048064,-0.00079421,-0
 .00101035,0.00068682,-0.00009403,-0.00023852,-0.00025429,0.00115571,-0
 .00161698,0.00076860,0.00021866,-0.00038644,-0.00004883,-0.12600824,-0
 .22868476,-0.05956293,0.13027092,0.36812426,-0.00065249,-0.00062993,-0
 .00034740,-0.00019489,-0.00021568,0.00001172,0.00005854,0.00067036,0.0
 0059891,-0.00066081,-0.00285062,-0.00065538,0.00313376,-0.02722525,-0.
 00106735,0.00061452,-0.00111381,0.00446183,0.00014909,-0.00016277,-0.0
 0034217,0.00009394,-0.00010333,0.00021854,-0.00002391,0.00014569,-0.00
 006851,0.00002702,0.00003773,0.00000938,0.00002001,-0.00002848,-0.0001
 0489,-0.00003255,-0.00006642,-0.00001402,-0.00126237,0.00415936,-0.003
 35280,-0.00022762,0.00029825,-0.00433409,0.00043476,0.00003313,0.00005
 472,0.00019615,0.00045315,0.00011587,0.00031883,-0.00018068,0.00009282
 ,0.00074937,-0.00194040,0.00167326,0.00016839,-0.00012991,0.00047535,-
 0.04184079,-0.05723991,-0.02853977,0.03855799,0.08521186,0.03100366,0.
 00294371,-0.00193319,-0.00365460,-0.00296378,-0.00097113,-0.00230882,-
 0.04818259,0.03305641,0.02731250,-0.65974188,-0.05131118,0.20062399,-0
 .00017418,0.00063291,0.00057350,0.00121828,-0.00051702,-0.00016963,-0.
 00129493,0.00240272,0.00467492,-0.00008489,0.00014958,0.00032404,0.000
 34391,0.00018804,0.00003039,-0.00025742,-0.00030832,0.00026508,0.00007
 968,0.00282799,0.00036611,-0.00120369,-0.00182381,0.00238635,-0.046077
 01,-0.04614178,0.01577363,-0.00055169,0.00002332,-0.00049128,-0.000276
 36,0.00004335,0.00037113,-0.00015658,0.00011006,-0.00009921,0.00096205
 ,-0.00227237,-0.00001774,-0.00340249,0.00107471,-0.00250585,-0.0024272
 6,0.00232488,0.00164343,0.00014124,-0.00005445,-0.00007739,0.00054961,
 -0.00083844,0.00037583,0.76056514,0.00088359,-0.00162725,-0.00326967,0
 .00036398,-0.00001951,-0.00124120,0.03312441,0.00133218,-0.01353261,-0
 .04901908,-0.05962477,0.01821761,-0.00045115,0.00005342,0.00023147,-0.
 00012497,0.00061343,-0.00030563,-0.00135066,-0.00119955,-0.00008743,0.
 00005637,0.00016611,0.00019674,-0.00007441,-0.00000402,0.00025643,-0.0
 0022196,0.00022757,0.00025816,0.00149069,-0.00318631,-0.00089251,-0.00
 086440,0.00017008,-0.00044164,-0.04751184,-0.01260622,0.00910433,0.000
 12498,-0.00005767,-0.00012879,0.00006665,-0.00011818,-0.00003208,0.000
 05682,0.00001364,0.00001066,-0.00073667,-0.00393044,-0.00016635,0.0001
 2895,0.00042864,-0.00152641,0.00042993,0.00059425,0.00087694,-0.000411
 79,-0.00158813,-0.00061574,0.00070724,0.00082223,0.00087135,0.06333533
 ,0.07953843,0.00069129,-0.00341738,-0.00453956,-0.00056466,0.00076226,
 0.00011295,0.02788521,-0.01271369,0.00675264,0.20321365,0.01765011,-0.
 12579791,-0.00016045,0.00052407,-0.00060068,-0.00021866,-0.00013781,-0
 .00033281,-0.00237297,-0.00117321,-0.00183856,0.00022402,0.00022615,-0
 .00005790,-0.00002112,0.00022278,0.00032667,0.00006542,0.00038545,0.00
 004938,0.00034182,-0.00167106,0.00005750,0.00138487,-0.00034074,-0.001
 66739,0.01396660,0.00820815,0.01633888,-0.00003876,-0.00003027,0.00028
 863,0.00013636,0.00001290,0.00016511,0.00004186,0.00007935,0.00014333,
 -0.00004913,0.00116757,0.00033052,-0.00076716,-0.00196684,0.00002787,0
 .00135990,0.00038658,-0.00116239,-0.00011887,-0.00114266,-0.00012024,0
 .00038898,0.00074983,0.00011419,-0.24539298,-0.00778282,0.11140865\\-0
 .00000010,-0.00000051,0.00000018,0.00000007,0.,-0.00000022,-0.00000008
 ,-0.00000042,0.00000035,0.00000049,0.00000061,-0.00000008,0.00000034,0
 .00000027,-0.00000003,-0.00000005,0.00000041,0.00000042,-0.00000003,0.
 00000007,0.00000002,0.00000010,0.00000013,0.00000005,-0.00000005,-0.00
 000005,0.00000003,-0.00000002,0.00000008,-0.00000002,0.00000009,0.0000
 0006,-0.00000007,0.,0.00000015,-0.00000020,0.00000017,0.00000004,0.000
 00010,-0.00000017,-0.00000007,-0.00000002,-0.00000012,0.00000005,-0.00
 000008,0.00000014,-0.00000024,-0.00000043,-0.00000054,0.00000002,0.000
 00014,0.00000022,-0.00000020,0.00000021,0.00000001,-0.00000017,-0.0000
 0047,-0.00000023,0.00000010,0.00000004,0.00000003,-0.00000022,-0.00000
 003,-0.00000029,-0.00000013,0.00000012\\\@


 STEINBACH'S GUIDELINES FOR SYSTEMS PROGRAMMING:
 NEVER TEST FOR AN ERROR CONDITION YOU DON'T KNOW HOW
 TO HANDLE.
 Job cpu time:       0 days  0 hours  0 minutes  1.3 seconds.
 File lengths (MBytes):  RWF=     51 Int=      0 D2E=      0 Chk=      2 Scr=      1
 Normal termination of Gaussian 09 at Mon Feb 15 21:54:31 2021.
