22
Properties=species:S:1:pos:R:3 energy=-13591.818541916926 pbc="F F F"
C        3.35556400       0.25898500       2.52642900
C        2.11117300       0.28681300       1.62928100
C        2.26366800      -0.51703400       0.33121800
C        1.62536700      -1.88888100       0.43806800
C        4.51521900      -1.95186500       2.38822600
C        3.62071200      -1.10236200       3.19557100
H        4.24733600       0.57160100       1.94604200
H        3.23795600       1.02599600       3.31891300
H        1.22887800      -0.06196400       2.20192900
H        1.89078400       1.34302400       1.36818100
H        1.82119900       0.03968100      -0.51722000
H        3.33959500      -0.63439300       0.07677300
C        0.12853100      -1.94090500       0.31967000
H        4.25258300      -2.52254900       1.51841500
H        4.05597900      -0.93555700       4.20608000
H        2.66425800      -1.64390400       3.37104400
H       -0.17722600      -1.93392000      -0.73647300
H       -0.37235800      -1.09843700       0.80881300
H       -0.27119500      -2.87057500       0.75273600
O        5.81788200      -1.96058400       2.89065300
O        6.63798200      -2.62485800       2.27739200
O        2.28757400      -2.89146700       0.58763000
