22
Properties=species:S:1:pos:R:3 energy=-13591.116410224087 pbc="F F F"
C        1.26234358       1.43235468      -0.03319446
C        0.09648373       1.34949204      -1.02501238
C       -0.16182818      -0.08755677      -1.47222742
C       -0.63186668      -1.03936082      -0.36591405
C        0.49055476      -0.68716809       1.11384900
C        0.92461731       0.73292943       1.28948852
H        2.16837913       0.97566957      -0.47930590
H        1.51916112       2.49101185       0.16245758
H       -0.81889856       1.78240208      -0.57721087
H        0.32123131       1.97394997      -1.91270314
H       -0.92147425      -0.10498398      -2.27942935
H        0.75387919      -0.51976400      -1.92851114
C       -1.99962522      -0.74155201       0.22963696
H       -0.13972219      -1.13993734       1.88034982
H        1.80248207       0.77522972       1.97046829
H        0.11821872       1.29413520       1.81044000
H       -2.76024536      -0.79120865      -0.56209138
H       -2.06079172       0.24899901       0.68655455
H       -2.28179500      -1.49747122       0.97348573
O        1.52269164      -1.49953211       0.60515124
O        1.15288354      -2.66421003       0.49082515
O       -0.35667894      -2.28342852      -0.57710674
