 Entering Gaussian System, Link 0=g09
 Initial command:
 /apps/applications/gaussian/G09.D01/2/default/g09/l1.exe "/nobackup/chmrsh/Scratch/Gau-39165.inp" -scrdir="/nobackup/chmrsh/Scratch/"
 Entering Link 1 = /apps/applications/gaussian/G09.D01/2/default/g09/l1.exe PID=     39166.
  
 Copyright (c) 1988,1990,1992,1993,1995,1998,2003,2009,2013,
            Gaussian, Inc.  All Rights Reserved.
  
 This is part of the Gaussian(R) 09 program.  It is based on
 the Gaussian(R) 03 system (copyright 2003, Gaussian, Inc.),
 the Gaussian(R) 98 system (copyright 1998, Gaussian, Inc.),
 the Gaussian(R) 94 system (copyright 1995, Gaussian, Inc.),
 the Gaussian 92(TM) system (copyright 1992, Gaussian, Inc.),
 the Gaussian 90(TM) system (copyright 1990, Gaussian, Inc.),
 the Gaussian 88(TM) system (copyright 1988, Gaussian, Inc.),
 the Gaussian 86(TM) system (copyright 1986, Carnegie Mellon
 University), and the Gaussian 82(TM) system (copyright 1983,
 Carnegie Mellon University). Gaussian is a federally registered
 trademark of Gaussian, Inc.
  
 This software contains proprietary and confidential information,
 including trade secrets, belonging to Gaussian, Inc.
  
 This software is provided under written license and may be
 used, copied, transmitted, or stored only in accord with that
 written license.
  
 The following legend is applicable only to US Government
 contracts under FAR:
  
                    RESTRICTED RIGHTS LEGEND
  
 Use, reproduction and disclosure by the US Government is
 subject to restrictions as set forth in subparagraphs (a)
 and (c) of the Commercial Computer Software - Restricted
 Rights clause in FAR 52.227-19.
  
 Gaussian, Inc.
 340 Quinnipiac St., Bldg. 40, Wallingford CT 06492
  
  
 ---------------------------------------------------------------
 Warning -- This program may not be used in any manner that
 competes with the business of Gaussian, Inc. or will provide
 assistance to any competitor of Gaussian, Inc.  The licensee
 of this program is prohibited from giving any competitor of
 Gaussian, Inc. access to this program.  By using this program,
 the user acknowledges that Gaussian, Inc. is engaged in the
 business of creating and licensing software in the field of
 computational chemistry and represents and warrants to the
 licensee that it is not a competitor of Gaussian, Inc. and that
 it will not use this program in any manner prohibited above.
 ---------------------------------------------------------------
  

 Cite this work as:
 Gaussian 09, Revision D.01,
 M. J. Frisch, G. W. Trucks, H. B. Schlegel, G. E. Scuseria, 
 M. A. Robb, J. R. Cheeseman, G. Scalmani, V. Barone, B. Mennucci, 
 G. A. Petersson, H. Nakatsuji, M. Caricato, X. Li, H. P. Hratchian, 
 A. F. Izmaylov, J. Bloino, G. Zheng, J. L. Sonnenberg, M. Hada, 
 M. Ehara, K. Toyota, R. Fukuda, J. Hasegawa, M. Ishida, T. Nakajima, 
 Y. Honda, O. Kitao, H. Nakai, T. Vreven, J. A. Montgomery, Jr., 
 J. E. Peralta, F. Ogliaro, M. Bearpark, J. J. Heyd, E. Brothers, 
 K. N. Kudin, V. N. Staroverov, T. Keith, R. Kobayashi, J. Normand, 
 K. Raghavachari, A. Rendell, J. C. Burant, S. S. Iyengar, J. Tomasi, 
 M. Cossi, N. Rega, J. M. Millam, M. Klene, J. E. Knox, J. B. Cross, 
 V. Bakken, C. Adamo, J. Jaramillo, R. Gomperts, R. E. Stratmann, 
 O. Yazyev, A. J. Austin, R. Cammi, C. Pomelli, J. W. Ochterski, 
 R. L. Martin, K. Morokuma, V. G. Zakrzewski, G. A. Voth, 
 P. Salvador, J. J. Dannenberg, S. Dapprich, A. D. Daniels, 
 O. Farkas, J. B. Foresman, J. V. Ortiz, J. Cioslowski, 
 and D. J. Fox, Gaussian, Inc., Wallingford CT, 2013.
 
 ******************************************
 Gaussian 09:  ES64L-G09RevD.01 24-Apr-2013
                 8-Jan-2021 
 ******************************************
 ----------------------------------------------------------------------
 #P b3lyp/3-21G scf=qc opt(calcall, ts, noeigentest, cartesian,maxcycle
 =100) NoSymm
 ----------------------------------------------------------------------
 1/5=1,6=100,10=4,11=1,14=-1,18=10,26=3,38=1/1,3;
 2/12=2,15=1,17=6,18=5,29=2,40=1/2;
 3/5=5,11=2,16=1,25=1,30=1,71=2,74=-5,140=1/1,2,3;
 4//1;
 5/5=2,8=3,38=5/8;
 8/6=4,10=90,11=11/1;
 11/6=1,8=1,9=11,15=111,16=1,31=1/1,2,10;
 10/6=1,31=1/2;
 6/7=2,8=2,9=2,10=2,18=1,28=1/1;
 7/7=1,10=1,25=1,30=1/1,2,3,16;
 1/5=1,6=100,10=4,11=1,14=-1,18=10,26=3/3(3);
 2/15=1,29=1/2;
 7/7=1,8=1,9=1,25=1,30=1,44=-1/16;
 99/12=1/99;
 2/15=1,29=1/2;
 3/5=5,11=2,16=1,25=1,30=1,71=2,74=-5,140=1/1,2,3;
 4/5=5,16=3,69=1/1;
 5/5=2,8=3,38=5/8;
 8/6=4,10=90,11=11/1;
 11/6=1,8=1,9=11,15=111,16=1,31=1/1,2,10;
 10/6=1,31=1/2;
 7/7=1,10=1,25=1,30=1/1,2,3,16;
 1/5=1,6=100,10=4,11=1,14=-1,18=10,26=3/3(-8);
 2/15=1,29=1/2;
 6/7=2,8=2,9=2,10=2,18=1,19=2,28=1/1;
 7/7=1,8=1,9=1,25=1,30=1,44=-1/16;
 99/12=1/99;
 Leave Link    1 at Fri Jan  8 02:42:17 2021, MaxMem=           0 cpu:         0.0
 (Enter /apps/applications/gaussian/G09.D01/2/default/g09/l101.exe)
 ------------------------------
 Gaussian input prepared by ASE
 ------------------------------
 Symbolic Z-matrix:
 Charge =  0 Multiplicity = 2
 C                     0.79395  -0.78044  -0.5699 
 C                    -0.13969   0.30671  -0.58065 
 H                     1.79132  -0.46747  -0.92387 
 H                     0.4593   -1.61425  -1.21082 
 H                     0.92275  -1.18625   0.45411 
 C                    -0.92652   1.22109  -0.58238 
 H                    -1.59634   2.00443  -0.6037 
 O                    -0.33123  -0.11172   1.99643 
 H                    -0.97354   0.62791   2.02079 
 
 NAtoms=      9 NQM=        9 NQMF=       0 NMMI=      0 NMMIF=      0
                NMic=       0 NMicF=      0.
                    Isotopes and Nuclear Properties:
 (Nuclear quadrupole moments (NQMom) in fm**2, nuclear magnetic moments (NMagM)
  in nuclear magnetons)

  Atom         1           2           3           4           5           6           7           8           9
 IAtWgt=          12          12           1           1           1          12           1          16           1
 AtmWgt=  12.0000000  12.0000000   1.0078250   1.0078250   1.0078250  12.0000000   1.0078250  15.9949146   1.0078250
 NucSpn=           0           0           1           1           1           0           1           0           1
 AtZEff=   0.0000000   0.0000000   0.0000000   0.0000000   0.0000000   0.0000000   0.0000000   0.0000000   0.0000000
 NQMom=    0.0000000   0.0000000   0.0000000   0.0000000   0.0000000   0.0000000   0.0000000   0.0000000   0.0000000
 NMagM=    0.0000000   0.0000000   2.7928460   2.7928460   2.7928460   0.0000000   2.7928460   0.0000000   2.7928460
 AtZNuc=   6.0000000   6.0000000   1.0000000   1.0000000   1.0000000   6.0000000   1.0000000   8.0000000   1.0000000
 Leave Link  101 at Fri Jan  8 02:42:17 2021, MaxMem=    33554432 cpu:         0.1
 (Enter /apps/applications/gaussian/G09.D01/2/default/g09/l103.exe)

 GradGradGradGradGradGradGradGradGradGradGradGradGradGradGradGradGradGrad
 Berny optimization.
 Initialization pass.
 No Z-matrix variables, so optimization will use Cartesian coordinates.
 Trust Radius=3.00D-01 FncErr=1.00D-07 GrdErr=1.00D-06
 Number of steps in this run=    100 maximum allowed number of steps=    100.
 Search for a saddle point of order  1.
 GradGradGradGradGradGradGradGradGradGradGradGradGradGradGradGradGradGrad

 Leave Link  103 at Fri Jan  8 02:42:17 2021, MaxMem=    33554432 cpu:         0.0
 (Enter /apps/applications/gaussian/G09.D01/2/default/g09/l202.exe)
 ---------------------------------------------------------------------------------------------------
                            Z-MATRIX (ANGSTROMS AND DEGREES)
   CD    Cent   Atom    N1       Length/X        N2       Alpha/Y        N3        Beta/Z          J
 ---------------------------------------------------------------------------------------------------
      1      1  C        0   0.793947         -0.780442         -0.569903
      2      2  C        0  -0.139691          0.306709         -0.580652
      3      3  H        0   1.791320         -0.467474         -0.923871
      4      4  H        0   0.459305         -1.614250         -1.210815
      5      5  H        0   0.922753         -1.186250          0.454106
      6      6  C        0  -0.926524          1.221088         -0.582382
      7      7  H        0  -1.596339          2.004430         -0.603704
      8      8  O        0  -0.331232         -0.111723          1.996434
      9      9  H        0  -0.973539          0.627911          2.020786
 ---------------------------------------------------------------------------------------------------
                         Z-Matrix orientation:                         
 ---------------------------------------------------------------------
 Center     Atomic      Atomic             Coordinates (Angstroms)
 Number     Number       Type             X           Y           Z
 ---------------------------------------------------------------------
      1          6           0        0.793947   -0.780442   -0.569903
      2          6           0       -0.139691    0.306709   -0.580652
      3          1           0        1.791320   -0.467474   -0.923871
      4          1           0        0.459305   -1.614250   -1.210815
      5          1           0        0.922753   -1.186250    0.454106
      6          6           0       -0.926524    1.221088   -0.582382
      7          1           0       -1.596339    2.004430   -0.603704
      8          8           0       -0.331232   -0.111723    1.996434
      9          1           0       -0.973539    0.627911    2.020786
 ---------------------------------------------------------------------
                    Distance matrix (angstroms):
                    1          2          3          4          5
     1  C    0.000000
     2  C    1.433072   0.000000
     3  H    1.103629   2.108546   0.000000
     4  H    1.103626   2.108551   1.780926   0.000000
     5  H    1.108992   2.104386   1.780413   1.780430   0.000000
     6  C    2.639374   1.206315   3.217846   3.217854   3.207710
     7  H    3.670167   2.237098   4.205835   4.205841   4.200622
     8  O    2.880850   2.617852   3.627667   3.628910   2.259616
     9  H    3.437897   2.750628   4.185131   4.186117   3.056402
                    6          7          8          9
     6  C    0.000000
     7  H    1.030889   0.000000
     8  O    2.963283   3.583199   0.000000
     9  H    2.670309   3.028305   0.979903   0.000000
 Symmetry turned off by external request.
 Stoichiometry    C3H5O(2)
 Framework group  C1[X(C3H5O)]
 Deg. of freedom    21
 Full point group                 C1      NOp   1
 Rotational constants (GHZ):      8.5687883      5.9876030      3.6050408
 Leave Link  202 at Fri Jan  8 02:42:18 2021, MaxMem=    33554432 cpu:         0.0
 (Enter /apps/applications/gaussian/G09.D01/2/default/g09/l301.exe)
 Standard basis: 3-21G (6D, 7F)
 Ernie: Thresh=  0.10000D-02 Tol=  0.10000D-05 Strict=F.
    46 basis functions,    75 primitive gaussians,    46 cartesian basis functions
    16 alpha electrons       15 beta electrons
       nuclear repulsion energy        99.7053274081 Hartrees.
 IExCor=  402 DFT=T Ex+Corr=B3LYP ExCW=0 ScaHFX=  0.200000
 ScaDFX=  0.800000  0.720000  1.000000  0.810000 ScalE2=  1.000000  1.000000
 IRadAn=      0 IRanWt=     -1 IRanGd=            0 ICorTp=0 IEmpDi=  4
 NAtoms=    9 NActive=    9 NUniq=    9 SFac= 1.00D+00 NAtFMM=   60 NAOKFM=F Big=F
 Integral buffers will be    131072 words long.
 Raffenetti 2 integral format.
 Two-electron integral symmetry is turned off.
 Leave Link  301 at Fri Jan  8 02:42:18 2021, MaxMem=    33554432 cpu:         0.0
 (Enter /apps/applications/gaussian/G09.D01/2/default/g09/l302.exe)
 NPDir=0 NMtPBC=     1 NCelOv=     1 NCel=       1 NClECP=     1 NCelD=      1
         NCelK=      1 NCelE2=     1 NClLst=     1 CellRange=     0.0.
 One-electron integrals computed using PRISM.
 NBasis=    46 RedAO= T EigKep=  1.19D-03  NBF=    46
 NBsUse=    46 1.00D-06 EigRej= -1.00D+00 NBFU=    46
 Precomputing XC quadrature grid using
 IXCGrd= 4 IRadAn=           0 IRanWt=          -1 IRanGd=           0 AccXCQ= 0.00D+00.
 Generated NRdTot=       0 NPtTot=           0 NUsed=           0 NTot=          32
 NSgBfM=    46    46    46    46    46 MxSgAt=     9 MxSgA2=     9.
 Leave Link  302 at Fri Jan  8 02:42:18 2021, MaxMem=    33554432 cpu:         0.1
 (Enter /apps/applications/gaussian/G09.D01/2/default/g09/l303.exe)
 DipDrv:  MaxL=1.
 Leave Link  303 at Fri Jan  8 02:42:18 2021, MaxMem=    33554432 cpu:         0.0
 (Enter /apps/applications/gaussian/G09.D01/2/default/g09/l401.exe)
 ExpMin= 1.83D-01 ExpMax= 3.22D+02 ExpMxC= 3.22D+02 IAcc=1 IRadAn=         1 AccDes= 0.00D+00
 Harris functional with IExCor=  402 and IRadAn=       1 diagonalized for initial guess.
 HarFok:  IExCor=  402 AccDes= 0.00D+00 IRadAn=         1 IDoV= 1 UseB2=F ITyADJ=14
 ICtDFT=  3500011 ScaDFX=  1.000000  1.000000  1.000000  1.000000
 FoFCou: FMM=F IPFlag=           0 FMFlag=      100000 FMFlg1=           0
         NFxFlg=           0 DoJE=T BraDBF=F KetDBF=T FulRan=T
         wScrn=  0.000000 ICntrl=     500 IOpCl=  0 I1Cent=   200000004 NGrid=           0
         NMat0=    1 NMatS0=      1 NMatT0=    0 NMatD0=    1 NMtDS0=    0 NMtDT0=    0
 Symmetry not used in FoFCou.
 Harris En= -191.326077658028    
 JPrj=0 DoOrth=F DoCkMO=F.
 Initial guess <Sx>= 0.0000 <Sy>= 0.0000 <Sz>= 0.5000 <S**2>= 0.7500 S= 0.5000
 Leave Link  401 at Fri Jan  8 02:42:18 2021, MaxMem=    33554432 cpu:         0.2
 (Enter /apps/applications/gaussian/G09.D01/2/default/g09/l508.exe)
 Direct SCF.
 Tight linear equation convergence will be used.
 UB3LYP wavefunction.
 Quadratic Convergence SCF Method.
 Line search only if initial step raises energy.
 Two-electron integral symmetry not used.
 ReadGW:  IGet=1 IStart=         402 Next=         402 LGW=           0.
 Keep R1 and R2 ints in memory in canonical form, NReq=2054730.
 FoFCou: FMM=F IPFlag=           0 FMFlag=           0 FMFlg1=           0
         NFxFlg=           0 DoJE=F BraDBF=F KetDBF=F FulRan=T
         wScrn=  0.000000 ICntrl=     600 IOpCl=  0 I1Cent=           0 NGrid=           0
         NMat0=    1 NMatS0=   1081 NMatT0=    0 NMatD0=    1 NMtDS0=    0 NMtDT0=    0
 Symmetry not used in FoFCou.
 Iteration   1 EE= -191.225512887941                                    Grad=4.352D-01 Max rot=    5.4209 deg.
 Gradient too large for Newton-Raphson -- use scaled steepest descent instead.
 Alpha Gap=     0.286 HL deriv= 4.01D-03
  Beta Gap=     0.117 HL deriv= 1.38D-05
     ILin= 1 X=0.000D+00 Y=-1.912255128879D+02 DE= 0.00D+00 F= -3.83D-01
     ILin= 2 X=3.000D-01 Y=-1.913052098116D+02 DE=-7.97D-02 F= -1.49D-01
     ILin= 3 X=4.000D-01 Y=-1.913162328752D+02 DE=-9.07D-02 F= -7.17D-02
     ILin= 4 X=6.000D-01 Y=-1.913152963495D+02 DE=-8.98D-02 F=  8.05D-02
     An  expanding polynomial of degree  4 produced  0.4937
 Iteration   2 EE= -191.319586108335     Delta-E=       -0.094073220393 Grad=1.189D-01 Max rot=    1.4967 deg.
 Gradient too large for Newton-Raphson -- use scaled steepest descent instead.
 Alpha Gap=     0.382 HL deriv= 1.09D-02
  Beta Gap=     0.145 HL deriv= 1.72D-06
     ILin= 1 X=0.000D+00 Y=-1.913195861083D+02 DE= 0.00D+00 F= -1.91D-02
     ILin= 2 X=4.000D-01 Y=-1.913249220168D+02 DE=-5.34D-03 F= -7.61D-03
     ILin= 3 X=7.000D-01 Y=-1.913259062682D+02 DE=-6.32D-03 F=  1.05D-03
     Accept linear search using points  2 and  3.
     An  expanding polynomial of degree  3 produced  0.5424
 Iteration   3 EE= -191.325713250661     Delta-E=       -0.006127142326 Grad=3.683D-02 Max rot=    0.7421 deg.
 Gradient too large for Newton-Raphson -- use scaled steepest descent instead.
 Alpha Gap=     0.363 HL deriv= 4.09D-04
  Beta Gap=     0.145 HL deriv= 3.65D-06
     ILin= 1 X=0.000D+00 Y=-1.913257132507D+02 DE= 0.00D+00 F= -3.26D-03
     ILin= 2 X=5.000D-01 Y=-1.913268916991D+02 DE=-1.18D-03 F= -1.47D-03
     ILin= 3 X=9.000D-01 Y=-1.913272065680D+02 DE=-1.49D-03 F= -1.13D-04
     ILin= 4 X=1.400D+00 Y=-1.913268561497D+02 DE=-1.14D-03 F=  1.50D-03
     An  expanding polynomial of degree  4 produced  0.9341
     Minimum is close to point  3 DX=  3.41D-02 DF= -1.92D-06 DXR=  3.65D-02 DFR=  1.29D-03 which will be used.
 Iteration   4 EE= -191.327206567991     Delta-E=       -0.001493317330 Grad=2.234D-02 Max rot=    0.3209 deg.
 Gradient too large for Newton-Raphson -- use scaled steepest descent instead.
 Alpha Gap=     0.382 HL deriv= 6.56D-03
  Beta Gap=     0.151 HL deriv= 6.12D-08
     ILin= 1 X=0.000D+00 Y=-1.913272065680D+02 DE= 0.00D+00 F= -1.10D-03
     ILin= 2 X=7.000D-01 Y=-1.913273300287D+02 DE=-1.23D-04 F=  7.49D-04
     Accept linear search using points  1 and  2.
     An  expanding polynomial of degree  2 produced  0.3871
 Iteration   5 EE= -191.327434970714     Delta-E=       -0.000228402723 Grad=8.408D-03 Max rot=    0.1562 deg.
 QCNR:  CnvC1=3.07D-09 CnvC2=3.07D-08
 LinEq1:  Iter=  0 NonCon=     1 RMS=5.99D-04 Max=1.55D-02 NDo=     1
 AX will form     1 AO Fock derivatives at one time.
 LinEq1:  Iter=  1 NonCon=     1 RMS=6.35D-04 Max=8.12D-03 NDo=     1
 LinEq1:  Iter=  2 NonCon=     1 RMS=1.60D-04 Max=1.34D-03 NDo=     1
 LinEq1:  Iter=  3 NonCon=     1 RMS=1.25D-04 Max=2.04D-03 NDo=     1
 LinEq1:  Iter=  4 NonCon=     1 RMS=2.89D-05 Max=3.52D-04 NDo=     1
 LinEq1:  Iter=  5 NonCon=     1 RMS=1.07D-05 Max=9.13D-05 NDo=     1
 LinEq1:  Iter=  6 NonCon=     1 RMS=7.23D-06 Max=7.32D-05 NDo=     1
 LinEq1:  Iter=  7 NonCon=     1 RMS=2.58D-06 Max=2.34D-05 NDo=     1
 LinEq1:  Iter=  8 NonCon=     1 RMS=4.23D-07 Max=3.71D-06 NDo=     1
 LinEq1:  Iter=  9 NonCon=     1 RMS=1.71D-07 Max=1.96D-06 NDo=     1
 LinEq1:  Iter= 10 NonCon=     1 RMS=1.02D-07 Max=1.98D-06 NDo=     1
 LinEq1:  Iter= 11 NonCon=     1 RMS=5.65D-08 Max=9.96D-07 NDo=     1
 LinEq1:  Iter= 12 NonCon=     1 RMS=1.84D-08 Max=1.56D-07 NDo=     1
 LinEq1:  Iter= 13 NonCon=     1 RMS=3.67D-09 Max=2.99D-08 NDo=     1
 LinEq1:  Iter= 14 NonCon=     0 RMS=7.74D-10 Max=7.07D-09 NDo=     1
 Linear equations converged to 3.074D-09 3.074D-08 after    14 iterations.
 Angle between quadratic step and gradient=  56.43 degrees.
     ILin= 1 X=0.000D+00 Y=-1.913274349707D+02 DE= 0.00D+00 F= -2.16D-04
     ILin= 2 X=1.000D+00 Y=-1.913275427949D+02 DE=-1.08D-04 F=  7.14D-07
     Accept linear search using points  1 and  2.
     An  expanding polynomial of degree  2 produced  0.9967
     Minimum is close to point  2 DX= -3.28D-03 DF= -1.17D-09 DXR=  3.29D-03 DFR=  1.09D-05 which will be used.
 Iteration   6 EE= -191.327542794886     Delta-E=       -0.000107824172 Grad=1.825D-04 Max rot=    0.0030 deg.
 QCNR:  CnvC1=1.82D-09 CnvC2=1.82D-08
 LinEq1:  Iter=  0 NonCon=     1 RMS=7.54D-06 Max=1.27D-04 NDo=     1
 LinEq1:  Iter=  1 NonCon=     1 RMS=2.54D-06 Max=3.52D-05 NDo=     1
 LinEq1:  Iter=  2 NonCon=     1 RMS=2.50D-06 Max=3.81D-05 NDo=     1
 LinEq1:  Iter=  3 NonCon=     1 RMS=1.41D-06 Max=1.50D-05 NDo=     1
 LinEq1:  Iter=  4 NonCon=     1 RMS=6.97D-07 Max=7.13D-06 NDo=     1
 LinEq1:  Iter=  5 NonCon=     1 RMS=3.27D-07 Max=3.61D-06 NDo=     1
 LinEq1:  Iter=  6 NonCon=     1 RMS=9.37D-08 Max=1.12D-06 NDo=     1
 LinEq1:  Iter=  7 NonCon=     1 RMS=2.71D-08 Max=3.92D-07 NDo=     1
 LinEq1:  Iter=  8 NonCon=     1 RMS=6.43D-09 Max=4.82D-08 NDo=     1
 LinEq1:  Iter=  9 NonCon=     1 RMS=3.41D-09 Max=4.94D-08 NDo=     1
 LinEq1:  Iter= 10 NonCon=     1 RMS=2.32D-09 Max=5.15D-08 NDo=     1
 LinEq1:  Iter= 11 NonCon=     0 RMS=9.00D-10 Max=1.02D-08 NDo=     1
 Linear equations converged to 1.825D-09 1.825D-08 after    11 iterations.
 Angle between quadratic step and gradient=  41.31 degrees.
     ILin= 1 X=0.000D+00 Y=-1.913275427949D+02 DE= 0.00D+00 F= -3.32D-08
     ILin= 2 X=1.000D+00 Y=-1.913275428115D+02 DE=-1.66D-08 F= -3.10D-13
     Reject lnstep minimum 1.000D+00 FVal=-1.913275428115D+02 Lims=  0.00D+00  1.00D+00
     ILin= 3 X=2.000D+00 Y=-1.913275427949D+02 DE=-8.53D-13 F=  3.32D-08
     An  expanding polynomial of degree  3 produced  1.0000
     Minimum is close to point  2 DX=  1.28D-05 DF=  0.00D+00 DXR=  1.28D-05 DFR=  0.00D+00 which will be used.
 Iteration   7 EE= -191.327542811505     Delta-E=       -0.000000016619 Grad=3.020D-08 Max rot=    0.0000 deg.
 Rotation gradient small -- convergence achieved.
 SCF Done:  E(UB3LYP) =  -191.327542812     a.u. after    7 cycles
            Convg  =    0.3020D-07                    41 Fock formations.
              S**2 =  0.7515                  -V/T =  2.0081
 <Sx>= 0.0000 <Sy>= 0.0000 <Sz>= 0.5000 <S**2>= 0.7515 S= 0.5007
 <L.S>= 0.000000000000E+00
 Annihilation of the first spin contaminant:
 S**2 before annihilation     0.7515,   after     0.7500
 Leave Link  508 at Fri Jan  8 02:42:47 2021, MaxMem=    33554432 cpu:        28.0
 (Enter /apps/applications/gaussian/G09.D01/2/default/g09/l801.exe)
 DoSCS=F DFT=T ScalE2(SS,OS)=  1.000000  1.000000
 Range of M.O.s used for correlation:     1    46
 NBasis=    46 NAE=    16 NBE=    15 NFC=     0 NFV=     0
 NROrb=     46 NOA=    16 NOB=    15 NVA=    30 NVB=    31

 **** Warning!!: The largest alpha MO coefficient is  0.12087091D+02


 **** Warning!!: The largest beta MO coefficient is  0.12164876D+02

 Leave Link  801 at Fri Jan  8 02:42:47 2021, MaxMem=    33554432 cpu:         0.0
 (Enter /apps/applications/gaussian/G09.D01/2/default/g09/l1101.exe)
 Using compressed storage, NAtomX=     9.
 Will process     10 centers per pass.
 Leave Link 1101 at Fri Jan  8 02:42:47 2021, MaxMem=    33554432 cpu:         0.1
 (Enter /apps/applications/gaussian/G09.D01/2/default/g09/l1102.exe)
 Symmetrizing basis deriv contribution to polar:
 IMax=3 JMax=2 DiffMx= 0.00D+00
 Leave Link 1102 at Fri Jan  8 02:42:47 2021, MaxMem=    33554432 cpu:         0.0
 (Enter /apps/applications/gaussian/G09.D01/2/default/g09/l1110.exe)
 Forming Gx(P) for the SCF density, NAtomX=     9.
 Integral derivatives from FoFJK, PRISM(SPDF).
 Do as many integral derivatives as possible in FoFJK.
 G2DrvN: MDV=      33554256.
 G2DrvN: will do    10 centers at a time, making    1 passes.
 Calling FoFCou, ICntrl=  3107 FMM=F I1Cent=   0 AccDes= 0.00D+00.
 FoFJK:  IHMeth= 1 ICntrl=    3107 DoSepK=F KAlg= 0 I1Cent=   0 FoldK=F
 IRaf=         0 NMat=   1 IRICut=       1 DoRegI=T DoRafI=F ISym2E= 0.
 FoFCou: FMM=F IPFlag=           0 FMFlag=      100000 FMFlg1=           0
         NFxFlg=           0 DoJE=F BraDBF=F KetDBF=F FulRan=T
         wScrn=  0.000000 ICntrl=    3107 IOpCl=  1 I1Cent=           0 NGrid=           0
         NMat0=    1 NMatS0=      1 NMatT0=    0 NMatD0=    1 NMtDS0=    0 NMtDT0=    0
 Symmetry not used in FoFCou.
 End of G2Drv F.D. properties file   721 does not exist.
 End of G2Drv F.D. properties file   722 does not exist.
 End of G2Drv F.D. properties file   788 does not exist.
 Leave Link 1110 at Fri Jan  8 02:42:57 2021, MaxMem=    33554432 cpu:         9.9
 (Enter /apps/applications/gaussian/G09.D01/2/default/g09/l1002.exe)
 Minotr:  UHF open shell wavefunction.
          IDoAtm=111111111
          Direct CPHF calculation.
          Differentiating once with respect to electric field.
                with respect to dipole field.
          Differentiating once with respect to nuclear coordinates.
          Requested convergence is 1.0D-08 RMS, and 1.0D-07 maximum.
          Secondary convergence is 1.0D-12 RMS, and 1.0D-12 maximum.
          NewPWx=T KeepS1=F KeepF1=F KeepIn=T MapXYZ=F SortEE=F KeepMc=T.
          MDV=      33554246 using IRadAn=       2.
 Generate precomputed XC quadrature information.
 Keep R1 and R2 ints in memory in canonical form, NReq=2035813.
 FoFCou: FMM=F IPFlag=           0 FMFlag=           0 FMFlg1=           0
         NFxFlg=           0 DoJE=F BraDBF=F KetDBF=F FulRan=T
         wScrn=  0.000000 ICntrl=     600 IOpCl=  0 I1Cent=           0 NGrid=           0
         NMat0=    1 NMatS0=   1081 NMatT0=    0 NMatD0=    1 NMtDS0=    0 NMtDT0=    0
 Symmetry not used in FoFCou.
          Solving linear equations simultaneously, MaxMat=       0.
          There are    30 degrees of freedom in the 1st order CPHF.  IDoFFX=6 NUNeed=     3.
     27 vectors produced by pass  0 Test12= 3.15D-15 3.33D-09 XBig12= 5.16D+01 4.33D+00.
 AX will form    27 AO Fock derivatives at one time.
     27 vectors produced by pass  1 Test12= 3.15D-15 3.33D-09 XBig12= 1.41D+01 8.29D-01.
     27 vectors produced by pass  2 Test12= 3.15D-15 3.33D-09 XBig12= 8.71D-02 6.25D-02.
     27 vectors produced by pass  3 Test12= 3.15D-15 3.33D-09 XBig12= 7.63D-05 1.43D-03.
     27 vectors produced by pass  4 Test12= 3.15D-15 3.33D-09 XBig12= 1.40D-07 8.76D-05.
     22 vectors produced by pass  5 Test12= 3.15D-15 3.33D-09 XBig12= 3.29D-10 4.21D-06.
      5 vectors produced by pass  6 Test12= 3.15D-15 3.33D-09 XBig12= 6.53D-13 1.28D-07.
      2 vectors produced by pass  7 Test12= 3.15D-15 3.33D-09 XBig12= 2.08D-15 8.14D-09.
 InvSVY:  IOpt=1 It=  1 EMax= 5.33D-15
 Solved reduced A of dimension   164 with    30 vectors.
 FullF1:  Do perturbations    1 to     3.
 Isotropic polarizability for W=    0.000000       30.29 Bohr**3.
 End of Minotr F.D. properties file   721 does not exist.
 End of Minotr F.D. properties file   722 does not exist.
 End of Minotr F.D. properties file   788 does not exist.
 Leave Link 1002 at Fri Jan  8 02:43:06 2021, MaxMem=    33554432 cpu:         8.8
 (Enter /apps/applications/gaussian/G09.D01/2/default/g09/l601.exe)
 Copying SCF densities to generalized density rwf, IOpCl= 1 IROHF=0.

 **********************************************************************

            Population analysis using the SCF density.

 **********************************************************************

 Alpha  occ. eigenvalues --  -19.04900 -10.13579 -10.13446 -10.11594  -0.97074
 Alpha  occ. eigenvalues --   -0.78485  -0.70882  -0.54165  -0.46278  -0.44068
 Alpha  occ. eigenvalues --   -0.42780  -0.41180  -0.34949  -0.28349  -0.27003
 Alpha  occ. eigenvalues --   -0.26854
 Alpha virt. eigenvalues --    0.05063   0.05859   0.12674   0.14682   0.16302
 Alpha virt. eigenvalues --    0.20473   0.22604   0.27052   0.48687   0.68191
 Alpha virt. eigenvalues --    0.70221   0.71569   0.79610   0.79614   0.90339
 Alpha virt. eigenvalues --    0.90599   0.96341   0.97756   1.03515   1.03838
 Alpha virt. eigenvalues --    1.04700   1.14893   1.25132   1.37889   1.42729
 Alpha virt. eigenvalues --    1.53798   1.63997   2.04100   2.08054   2.58137
  Beta  occ. eigenvalues --  -19.02624 -10.13564 -10.13432 -10.11505  -0.90550
  Beta  occ. eigenvalues --   -0.78355  -0.70738  -0.54082  -0.46238  -0.43088
  Beta  occ. eigenvalues --   -0.42778  -0.38783  -0.27397  -0.27304  -0.25134
  Beta virt. eigenvalues --   -0.10445   0.05412   0.05907   0.13389   0.14904
  Beta virt. eigenvalues --    0.16538   0.20480   0.22855   0.27075   0.48774
  Beta virt. eigenvalues --    0.68297   0.70253   0.72309   0.79668   0.79840
  Beta virt. eigenvalues --    0.90341   0.90922   0.96484   0.98194   1.03514
  Beta virt. eigenvalues --    1.03973   1.04746   1.15641   1.25199   1.39495
  Beta virt. eigenvalues --    1.44704   1.61228   1.66568   2.04321   2.08125
  Beta virt. eigenvalues --    2.63024
          Condensed to atoms (all electrons):
               1          2          3          4          5          6
     1  C    5.401388   0.254843   0.365322   0.365312   0.348850  -0.054141
     2  C    0.254843   4.782705  -0.050857  -0.050865  -0.044503   0.978713
     3  H    0.365322  -0.050857   0.510789  -0.025698  -0.021994  -0.002657
     4  H    0.365312  -0.050865  -0.025698   0.510819  -0.021992  -0.002659
     5  H    0.348850  -0.044503  -0.021994  -0.021992   0.464667  -0.002715
     6  C   -0.054141   0.978713  -0.002657  -0.002659  -0.002715   5.103165
     7  H    0.000981  -0.023869  -0.000024  -0.000024  -0.000020   0.379194
     8  O   -0.009662   0.010704   0.000148   0.000149   0.020119  -0.001487
     9  H    0.001029  -0.003657  -0.000019  -0.000019  -0.002050   0.007774
               7          8          9
     1  C    0.000981  -0.009662   0.001029
     2  C   -0.023869   0.010704  -0.003657
     3  H   -0.000024   0.000148  -0.000019
     4  H   -0.000024   0.000149  -0.000019
     5  H   -0.000020   0.020119  -0.002050
     6  C    0.379194  -0.001487   0.007774
     7  H    0.410243   0.000037   0.000268
     8  O    0.000037   8.135082   0.198712
     9  H    0.000268   0.198712   0.454655
          Atomic-Atomic Spin Densities.
               1          2          3          4          5          6
     1  C    0.006197   0.003234  -0.000137  -0.000138  -0.001670   0.000178
     2  C    0.003234  -0.016617   0.000379   0.000382  -0.000578   0.001597
     3  H   -0.000137   0.000379  -0.001270  -0.000027   0.000264   0.000036
     4  H   -0.000138   0.000382  -0.000027  -0.001275   0.000265   0.000037
     5  H   -0.001670  -0.000578   0.000264   0.000265  -0.000960  -0.000146
     6  C    0.000178   0.001597   0.000036   0.000037  -0.000146   0.063521
     7  H   -0.000006  -0.000117   0.000000   0.000000   0.000001  -0.000197
     8  O   -0.001969  -0.005520   0.000039   0.000039   0.001359  -0.005460
     9  H   -0.000017   0.000682   0.000000   0.000000   0.000120   0.000370
               7          8          9
     1  C   -0.000006  -0.001969  -0.000017
     2  C   -0.000117  -0.005520   0.000682
     3  H    0.000000   0.000039   0.000000
     4  H    0.000000   0.000039   0.000000
     5  H    0.000001   0.001359   0.000120
     6  C   -0.000197  -0.005460   0.000370
     7  H   -0.002333   0.000015  -0.000016
     8  O    0.000015   1.008560  -0.006183
     9  H   -0.000016  -0.006183  -0.029462
 Mulliken charges and spin densities:
               1          2
     1  C   -0.673922   0.005672
     2  C    0.146788  -0.016557
     3  H    0.224990  -0.000713
     4  H    0.224976  -0.000716
     5  H    0.259638  -0.001344
     6  C   -0.405187   0.059936
     7  H    0.233213  -0.002653
     8  O   -0.353803   0.990881
     9  H    0.343306  -0.034505
 Sum of Mulliken charges =   0.00000   1.00000
 Mulliken charges and spin densities with hydrogens summed into heavy atoms:
               1          2
     1  C    0.035682   0.002899
     2  C    0.146788  -0.016557
     6  C   -0.171974   0.057283
     8  O   -0.010497   0.956376
 APT charges:
               1
     1  C    0.012222
     2  C   -0.002765
     3  H    0.020111
     4  H    0.020106
     5  H    0.094531
     6  C   -0.384933
     7  H    0.219653
     8  O   -0.207697
     9  H    0.228772
 Sum of APT charges =   0.00000
 APT charges with hydrogens summed into heavy atoms:
               1
     1  C    0.146971
     2  C   -0.002765
     6  C   -0.165280
     8  O    0.021074
 Electronic spatial extent (au):  <R**2>=            351.8202
 Charge=              0.0000 electrons
 Dipole moment (field-independent basis, Debye):
    X=             -0.5750    Y=              0.6983    Z=             -0.1254  Tot=              0.9133
 Quadrupole moment (field-independent basis, Debye-Ang):
   XX=            -21.4381   YY=            -21.4905   ZZ=            -24.5542
   XY=             -3.9918   XZ=             -2.5972   YZ=              2.7965
 Traceless Quadrupole moment (field-independent basis, Debye-Ang):
   XX=              1.0562   YY=              1.0038   ZZ=             -2.0599
   XY=             -3.9918   XZ=             -2.5972   YZ=              2.7965
 Octapole moment (field-independent basis, Debye-Ang**2):
  XXX=              6.4264  YYY=             -5.1409  ZZZ=              3.2705  XYY=             -2.8440
  XXY=              1.9316  XXZ=              0.7945  XZZ=             -1.7877  YZZ=              0.4120
  YYZ=             -1.2399  XYZ=             -1.4152
 Hexadecapole moment (field-independent basis, Debye-Ang**3):
 XXXX=            -95.5816 YYYY=           -113.2629 ZZZZ=           -191.6299 XXXY=             31.9569
 XXXZ=              8.6100 YYYX=             27.3553 YYYZ=              6.7775 ZZZX=             -0.9557
 ZZZY=             19.1287 XXYY=            -28.3633 XXZZ=            -44.9206 YYZZ=            -51.2473
 XXYZ=              2.0522 YYXZ=              6.7331 ZZXY=              7.6455
 N-N= 9.970532740809D+01 E-N=-6.462109907272D+02  KE= 1.897981082209D+02
  Exact polarizability:  29.233 -14.966  33.904  -1.086  -1.629  27.729
 Approx polarizability:  44.262 -28.975  53.898   0.295  -3.476  31.979
                          Isotropic Fermi Contact Couplings
        Atom                 a.u.       MegaHertz       Gauss      10(-4) cm-1
     1  C(13)              0.00435       4.88738       1.74394       1.63026
     2  C(13)              0.00086       0.96289       0.34358       0.32119
     3  H(1)              -0.00028      -1.27275      -0.45415      -0.42454
     4  H(1)              -0.00029      -1.27823      -0.45610      -0.42637
     5  H(1)              -0.00061      -2.70810      -0.96632      -0.90332
     6  C(13)              0.00735       8.26397       2.94879       2.75657
     7  H(1)              -0.00093      -4.17331      -1.48914      -1.39207
     8  O(17)              0.10265     -62.22398     -22.20306     -20.75568
     9  H(1)              -0.01327     -59.31240     -21.16414     -19.78449
 --------------------------------------------------------
       Center         ----  Spin Dipole Couplings  ----
                      3XX-RR        3YY-RR        3ZZ-RR
 --------------------------------------------------------
     1   Atom       -0.004135     -0.006838      0.010973
     2   Atom       -0.016345     -0.013602      0.029947
     3   Atom        0.000904     -0.003312      0.002408
     4   Atom       -0.003011     -0.000820      0.003831
     5   Atom       -0.000668     -0.002691      0.003360
     6   Atom       -0.034664     -0.028997      0.063662
     7   Atom       -0.001943      0.001738      0.000205
     8   Atom       -1.572996     -1.480816      3.053813
     9   Atom        0.006227      0.044011     -0.050238
 --------------------------------------------------------
                        XY            XZ            YZ
 --------------------------------------------------------
     1   Atom       -0.003571     -0.010001      0.006556
     2   Atom       -0.006256     -0.004767     -0.007564
     3   Atom       -0.000748     -0.004667      0.000752
     4   Atom       -0.000986     -0.001761      0.003919
     5   Atom       -0.011996     -0.013365      0.011262
     6   Atom        0.000758     -0.000272     -0.023959
     7   Atom       -0.006919      0.002247     -0.004505
     8   Atom        0.019379     -0.383810     -0.723752
     9   Atom       -0.140093     -0.016668      0.002459
 --------------------------------------------------------


 ---------------------------------------------------------------------------------
              Anisotropic Spin Dipole Couplings in Principal Axis System
 ---------------------------------------------------------------------------------

       Atom             a.u.   MegaHertz   Gauss  10(-4) cm-1        Axes

              Baa    -0.0094    -1.255    -0.448    -0.419  0.7479  0.6442  0.1602
     1 C(13)  Bbb    -0.0088    -1.184    -0.423    -0.395 -0.5060  0.7094 -0.4906
              Bcc     0.0182     2.439     0.870     0.814 -0.4297  0.2858  0.8566
 
              Baa    -0.0227    -3.053    -1.089    -1.018  0.7481  0.6440  0.1601
     2 C(13)  Bbb    -0.0088    -1.175    -0.419    -0.392 -0.6590  0.7493  0.0653
              Bcc     0.0315     4.228     1.509     1.410 -0.0779 -0.1543  0.9849
 
              Baa    -0.0034    -1.837    -0.656    -0.613  0.2309  0.9712  0.0594
     3 H(1)   Bbb    -0.0031    -1.629    -0.581    -0.543  0.7281 -0.2129  0.6515
              Bcc     0.0065     3.467     1.237     1.156 -0.6454  0.1072  0.7563
 
              Baa    -0.0034    -1.836    -0.655    -0.612  0.9775  0.0701  0.1990
     4 H(1)   Bbb    -0.0031    -1.628    -0.581    -0.543  0.0367  0.8724 -0.4874
              Bcc     0.0065     3.464     1.236     1.155 -0.2078  0.4837  0.8502
 
              Baa    -0.0138    -7.385    -2.635    -2.463  0.7486  0.6434  0.1603
     5 H(1)   Bbb    -0.0108    -5.779    -2.062    -1.928  0.3254 -0.5672  0.7566
              Bcc     0.0247    13.164     4.697     4.391 -0.5777  0.5142  0.6339
 
              Baa    -0.0354    -4.753    -1.696    -1.586 -0.6642  0.7271  0.1740
     6 C(13)  Bbb    -0.0341    -4.572    -1.631    -1.525  0.7476  0.6446  0.1601
              Bcc     0.0695     9.325     3.327     3.111 -0.0043 -0.2364  0.9716
 
              Baa    -0.0074    -3.958    -1.412    -1.320  0.7481  0.6440  0.1600
     7 H(1)   Bbb    -0.0022    -1.194    -0.426    -0.398 -0.4145  0.2652  0.8706
              Bcc     0.0097     5.152     1.838     1.718 -0.5182  0.7176 -0.4653
 
              Baa    -1.6387   118.574    42.310    39.552  0.7479  0.6441  0.1605
     8 O(17)  Bbb    -1.5585   112.770    40.239    37.616 -0.6590  0.7495  0.0628
              Bcc     3.1972  -231.344   -82.549   -77.168 -0.0799 -0.1527  0.9850
 
              Baa    -0.1180   -62.970   -22.469   -21.005  0.7479  0.6442  0.1605
     9 H(1)   Bbb    -0.0492   -26.260    -9.370    -8.759 -0.0824 -0.1498  0.9853
              Bcc     0.1672    89.230    31.840    29.764 -0.6587  0.7501  0.0590
 

 ---------------------------------------------------------------------------------

 No NMR shielding tensors so no spin-rotation constants.
 Leave Link  601 at Fri Jan  8 02:43:06 2021, MaxMem=    33554432 cpu:         0.1
 (Enter /apps/applications/gaussian/G09.D01/2/default/g09/l701.exe)
 Compute integral second derivatives.
 ... and contract with generalized density number  0.
 Leave Link  701 at Fri Jan  8 02:43:06 2021, MaxMem=    33554432 cpu:         0.1
 (Enter /apps/applications/gaussian/G09.D01/2/default/g09/l702.exe)
 L702 exits ... SP integral derivatives will be done elsewhere.
 Leave Link  702 at Fri Jan  8 02:43:06 2021, MaxMem=    33554432 cpu:         0.0
 (Enter /apps/applications/gaussian/G09.D01/2/default/g09/l703.exe)
 Compute integral second derivatives, UseDBF=F ICtDFT=           0.
 Integral derivatives from FoFJK, PRISM(SPDF).
 Calling FoFJK, ICntrl=    100127 FMM=F ISym2X=0 I1Cent= 0 IOpClX= 1 NMat=1 NMatS=1 NMatT=0.
 FoFJK:  IHMeth= 1 ICntrl=  100127 DoSepK=F KAlg= 0 I1Cent=   0 FoldK=F
 IRaf=         0 NMat=   1 IRICut=       1 DoRegI=T DoRafI=F ISym2E= 0.
 FoFCou: FMM=F IPFlag=           0 FMFlag=      100000 FMFlg1=         800
         NFxFlg=           0 DoJE=F BraDBF=F KetDBF=F FulRan=T
         wScrn=  0.000000 ICntrl=  100127 IOpCl=  1 I1Cent=           0 NGrid=           0
         NMat0=    1 NMatS0=      1 NMatT0=    0 NMatD0=    1 NMtDS0=    0 NMtDT0=    0
 Symmetry not used in FoFCou.
 Leave Link  703 at Fri Jan  8 02:43:15 2021, MaxMem=    33554432 cpu:         8.6
 (Enter /apps/applications/gaussian/G09.D01/2/default/g09/l716.exe)
 Dipole        =-2.26228049D-01 2.74747505D-01-4.93468681D-02
 Polarizability= 2.92333090D+01-1.49663001D+01 3.39040949D+01
                -1.08562105D+00-1.62914255D+00 2.77287886D+01
 -------------------------------------------------------------------
 Center     Atomic                   Forces (Hartrees/Bohr)
 Number     Number              X              Y              Z
 -------------------------------------------------------------------
      1        6           0.020173152   -0.024257154    0.003316637
      2        6          -0.008624483    0.009008222    0.004013313
      3        1          -0.004142469    0.000086059   -0.000216676
      4        1           0.000459044    0.004048275    0.000770043
      5        1          -0.003601518    0.006276696   -0.008441420
      6        6           0.014058602   -0.016301749   -0.000088466
      7        1          -0.017121978    0.020181933   -0.001150144
      8        8           0.015485320   -0.017969744    0.000135441
      9        1          -0.016685670    0.018927461    0.001661271
 -------------------------------------------------------------------
 Cartesian Forces:  Max     0.024257154 RMS     0.011711618
 Force constants in Cartesian coordinates: 
                1             2             3             4             5 
      1  0.531556D+00
      2 -0.173747D-01  0.534597D+00
      3 -0.294751D-02  0.637867D-02  0.504340D+00
      4 -0.170196D+00  0.120913D+00 -0.228704D-03  0.692877D+00
      5  0.121528D+00 -0.207186D+00 -0.739343D-03 -0.691791D+00  0.900150D+00
      6 -0.267772D-02  0.209262D-02 -0.621589D-01 -0.710652D-03  0.310055D-02
      7 -0.241697D+00 -0.648995D-01  0.705580D-01 -0.268497D-01  0.983615D-03
      8 -0.653356D-01 -0.709557D-01  0.243288D-01  0.327407D-01  0.636691D-02
      9  0.708668D-01  0.242359D-01 -0.716740D-01 -0.143797D-02 -0.237506D-02
     10 -0.729914D-01 -0.568033D-01 -0.462974D-01  0.618965D-02  0.237524D-01
     11 -0.564776D-01 -0.181446D+00 -0.105707D+00 -0.240922D-02 -0.287628D-01
     12 -0.461986D-01 -0.106110D+00 -0.129952D+00  0.403523D-02  0.111123D-02
     13 -0.517861D-01  0.719303D-02 -0.221330D-01 -0.771340D-02  0.123329D-01
     14  0.774064D-02 -0.782540D-01  0.757004D-01  0.695105D-02 -0.169975D-01
     15 -0.243142D-01  0.782744D-01 -0.250261D+00 -0.272223D-02  0.146335D-02
     16  0.300573D-02  0.494145D-02 -0.259439D-03 -0.500009D+00  0.536833D+00
     17  0.484356D-02  0.152166D-02  0.240420D-03  0.538263D+00 -0.662223D+00
     18  0.145197D-03 -0.230413D-03  0.745128D-02 -0.407403D-02  0.413777D-02
     19  0.357386D-02  0.271954D-02 -0.197717D-04  0.581278D-02 -0.253352D-02
     20  0.271274D-02  0.273467D-02  0.982313D-04 -0.289257D-02  0.682887D-02
     21  0.628398D-05  0.681154D-04  0.560893D-02  0.113112D-02 -0.128009D-02
     22 -0.168078D-02  0.264746D-02  0.973332D-03  0.863239D-03 -0.242173D-02
     23  0.177557D-02 -0.129254D-02  0.120954D-03 -0.331593D-02  0.381683D-02
     24  0.446087D-02 -0.394982D-02 -0.420841D-02  0.502129D-02 -0.773270D-02
     25  0.215365D-03  0.662710D-03  0.354429D-03 -0.974189D-03  0.131631D-02
     26  0.587185D-03  0.280757D-03 -0.420655D-03  0.154135D-02 -0.199321D-02
     27  0.658877D-03 -0.759514D-03  0.854986D-03 -0.101406D-02  0.231430D-02
                6             7             8             9            10 
      6  0.883147D-01
      7  0.679255D-02  0.273242D+00
      8 -0.116717D-01  0.676567D-01  0.800311D-01
      9 -0.153822D-02 -0.799034D-01 -0.267117D-01  0.770107D-01
     10  0.181839D-01 -0.101429D-01 -0.230461D-01 -0.197852D-01  0.811137D-01
     11 -0.155783D-01 -0.414060D-02 -0.830237D-02 -0.599738D-02  0.585913D-01
     12  0.547408D-03  0.346219D-02  0.994040D-02  0.640846D-02  0.509847D-01
     13 -0.241865D-01  0.349748D-02 -0.111054D-01  0.301630D-01 -0.239540D-02
     14  0.264107D-01  0.364391D-03 -0.483304D-02  0.102658D-01 -0.250616D-02
     15  0.443152D-02 -0.524172D-03  0.269495D-02 -0.989857D-02 -0.132118D-02
     16  0.164338D-02  0.145208D-02  0.345020D-04 -0.131132D-03 -0.124691D-02
     17 -0.250800D-02 -0.362879D-03 -0.181582D-02  0.105104D-02  0.613407D-03
     18 -0.351335D-01  0.319981D-04  0.701715D-03  0.893130D-03 -0.112798D-02
     19 -0.308863D-03  0.500580D-03 -0.781492D-03  0.770568D-04 -0.547259D-03
     20  0.392262D-03  0.437619D-03 -0.662344D-03  0.653434D-04 -0.482329D-03
     21  0.343347D-02 -0.207895D-03  0.364105D-03  0.582818D-04 -0.603408D-03
     22  0.148309D-02  0.190484D-04 -0.131487D-03  0.209557D-03 -0.816644D-04
     23 -0.357322D-02  0.793081D-04  0.292204D-04 -0.286532D-03 -0.103150D-03
     24  0.647014D-02 -0.913169D-04  0.190906D-03 -0.146963D-02  0.147952D-03
     25 -0.219115D-03 -0.222418D-04 -0.317739D-04 -0.587873D-04  0.102272D-03
     26  0.133507D-02 -0.118675D-03  0.142004D-03 -0.247466D-03 -0.160230D-04
     27 -0.436660D-02 -0.118038D-03  0.162485D-03  0.209868D-03 -0.181395D-03
               11            12            13            14            15 
     11  0.206858D+00
     12  0.119702D+00  0.142394D+00
     13  0.382582D-02 -0.114367D-01  0.593826D-01
     14  0.990889D-02 -0.251004D-01 -0.140065D-01  0.905195D-01
     15  0.632833D-02 -0.187561D-01  0.251407D-01 -0.860853D-01  0.280034D+00
     16  0.358994D-03 -0.151945D-02 -0.158012D-03  0.137189D-02  0.123053D-02
     17  0.130510D-02  0.569137D-03  0.130378D-02  0.504699D-04 -0.111351D-02
     18  0.274481D-03  0.468591D-03  0.150617D-02 -0.143554D-02  0.260960D-04
     19  0.542792D-03 -0.111348D-03 -0.102345D-03  0.140976D-03  0.166009D-04
     20  0.463080D-03 -0.100392D-03 -0.530724D-04  0.729151D-04  0.423050D-04
     21  0.503217D-03 -0.189788D-04  0.788734D-03 -0.854446D-03 -0.223904D-03
     22 -0.806298D-04  0.598479D-03 -0.797081D-03  0.157228D-02  0.350058D-02
     23 -0.908324D-05  0.269296D-04  0.251205D-02 -0.104376D-02 -0.246561D-02
     24  0.428540D-03 -0.133384D-02 -0.333615D-03  0.199035D-02 -0.508177D-02
     25 -0.210801D-03  0.185538D-03  0.722565D-04 -0.162857D-02 -0.100663D-02
     26 -0.154089D-04 -0.388311D-04 -0.200261D-02  0.576537D-03  0.861063D-03
     27  0.465444D-04  0.243099D-03  0.491274D-03 -0.891462D-03 -0.269639D-03
               16            17            18            19            20 
     16  0.718621D+00
     17 -0.789106D+00  0.960962D+00
     18  0.968344D-02 -0.115365D-01  0.423704D-01
     19 -0.221373D+00  0.244237D+00 -0.615240D-02  0.211951D+00
     20  0.244570D+00 -0.298295D+00  0.712486D-02 -0.244416D+00  0.288787D+00
     21 -0.748680D-02  0.867559D-02 -0.121290D-01  0.652896D-02 -0.779307D-02
     22 -0.966475D-03  0.862361D-03  0.147601D-02 -0.134412D-03 -0.932281D-04
     23  0.222391D-02 -0.222297D-02 -0.102583D-02 -0.176443D-03 -0.105891D-03
     24 -0.397786D-02  0.530725D-02 -0.267983D-02  0.877941D-04 -0.210106D-03
     25  0.675530D-03 -0.654083D-03 -0.148842D-02  0.319499D-03  0.217134D-03
     26 -0.122786D-02  0.718428D-03  0.198947D-02  0.267270D-03  0.177416D-03
     27  0.817331D-03 -0.685415D-03 -0.126717D-02 -0.118028D-03  0.380560D-03
               21            22            23            24            25 
     21  0.355918D-02
     22 -0.241561D-03  0.203647D+00
     23  0.173669D-03 -0.253011D+00  0.272814D+00
     24  0.161168D-03 -0.150841D-01  0.146932D-01 -0.649218D-02
     25  0.845668D-04 -0.200869D+00  0.250015D+00  0.976895D-02  0.200480D+00
     26  0.142905D-03  0.250656D+00 -0.271986D+00 -0.107176D-01 -0.249686D+00
     27 -0.449141D-03  0.708456D-02 -0.766358D-02  0.146343D-01 -0.762052D-02
               26            27 
     26  0.272100D+00
     27  0.709608D-02 -0.958975D-02
 Leave Link  716 at Fri Jan  8 02:43:15 2021, MaxMem=    33554432 cpu:         0.0
 (Enter /apps/applications/gaussian/G09.D01/2/default/g09/l103.exe)

 GradGradGradGradGradGradGradGradGradGradGradGradGradGradGradGradGradGrad
 Berny optimization.
 Search for a saddle point.
 Step number   1 out of a maximum of  100
 All quantities printed in internal units (Hartrees-Bohrs-Radians)
 Swapping is turned off.
 Second derivative matrix not updated -- analytic derivatives used.
 ITU=  0
     Eigenvalues ---   -0.02688  -0.02361   0.00033   0.00161   0.00558
     Eigenvalues ---    0.00659   0.01100   0.04454   0.04707   0.09474
     Eigenvalues ---    0.10868   0.11155   0.15408   0.16209   0.25013
     Eigenvalues ---    0.51346   0.69037   0.69922   0.86682   0.88874
     Eigenvalues ---    2.77179
 Eigenvectors required to have negative eigenvalues:
                          X9        Y9        X8        Y8        Z9
   1                    0.67365   0.58469  -0.26724  -0.22304   0.18000
                          X5        Y5        Z8        Z4        X7
   1                    0.10761   0.08793  -0.08501   0.06789  -0.06766
 Eigenvalue     2 is  -2.36D-02 should be greater than     0.000000 Eigenvector:
                          Z9        Z8        X9        Z2        Y8
   1                    0.73358  -0.58340  -0.17713   0.17129   0.16477
                          Z6        Y5        Y2        Z1        Z7
   1                    0.10765  -0.06691  -0.05122   0.04778   0.04696
 RFO step:  Lambda0=3.401124344D-09 Lambda=-2.36666718D-02.
 Linear search not attempted -- option 19 set.
 Maximum step size (   0.300) exceeded in Quadratic search.
    -- Step size scaled by   0.396
 TrRot=  0.003795  0.001314 -0.016856 -1.164927 -0.002395  1.164574
 Variable       Old X    -DE/DX   Delta X   Delta X   Delta X     New X
                                 (Linear)    (Quad)   (Total)
    X1        1.50034   0.02017   0.00000   0.01994   0.02421   1.52456
    Y1       -1.47482  -0.02426   0.00000  -0.02658  -0.02815  -1.50297
    Z1       -1.07696   0.00332   0.00000   0.00932  -0.00279  -1.07975
    X2       -0.26398  -0.00862   0.00000   0.00035   0.00532  -0.25866
    Y2        0.57960   0.00901   0.00000  -0.01597  -0.01685   0.56275
    Z2       -1.09727   0.00401   0.00000   0.06203   0.04369  -1.05358
    X3        3.38510  -0.00414   0.00000   0.00056   0.00569   3.39079
    Y3       -0.88340   0.00009   0.00000  -0.00047  -0.00419  -0.88758
    Z3       -1.74586  -0.00022   0.00000  -0.00285  -0.01455  -1.76041
    X4        0.86796   0.00046   0.00000   0.00055   0.00543   0.87339
    Y4       -3.05049   0.00405   0.00000   0.00031  -0.00372  -3.05421
    Z4       -2.28811   0.00077   0.00000  -0.00477  -0.01409  -2.30220
    X5        1.74375  -0.00360   0.00000   0.01386   0.01605   1.75980
    Y5       -2.24169   0.00628   0.00000  -0.01834  -0.01576  -2.25744
    Z5        0.85814  -0.00844   0.00000  -0.00386  -0.01409   0.84405
    X6       -1.75088   0.01406   0.00000   0.00247   0.00808  -1.74279
    Y6        2.30752  -0.01630   0.00000  -0.00981  -0.01024   2.29728
    Z6       -1.10054  -0.00009   0.00000   0.03203   0.00847  -1.09207
    X7       -3.01664  -0.01712   0.00000  -0.00633  -0.00012  -3.01676
    Y7        3.78782   0.02018   0.00000   0.00867   0.00853   3.79635
    Z7       -1.14083  -0.00115   0.00000   0.00338  -0.02469  -1.16552
    X8       -0.62594   0.01549   0.00000   0.00056   0.00088  -0.62505
    Y8       -0.21113  -0.01797   0.00000   0.04817   0.05764  -0.15348
    Z8        3.77271   0.00014   0.00000  -0.16493  -0.18203   3.59069
    X9       -1.83972  -0.01669   0.00000  -0.06595  -0.06556  -1.90528
    Y9        1.18658   0.01893   0.00000   0.00186   0.01273   1.19931
    Z9        3.81873   0.00166   0.00000   0.22136   0.20008   4.01881
         Item               Value     Threshold  Converged?
 Maximum Force            0.024257     0.000450     NO 
 RMS     Force            0.011712     0.000300     NO 
 Maximum Displacement     0.200076     0.001800     NO 
 RMS     Displacement     0.056662     0.001200     NO 
 Predicted change in Energy=-2.829169D-03
 Lowest energy point so far.  Saving SCF results.
 GradGradGradGradGradGradGradGradGradGradGradGradGradGradGradGradGradGrad

 Leave Link  103 at Fri Jan  8 02:43:15 2021, MaxMem=    33554432 cpu:         0.0
 (Enter /apps/applications/gaussian/G09.D01/2/default/g09/l202.exe)
                          Input orientation:                          
 ---------------------------------------------------------------------
 Center     Atomic      Atomic             Coordinates (Angstroms)
 Number     Number       Type             X           Y           Z
 ---------------------------------------------------------------------
      1          6           0        0.806760   -0.795337   -0.571380
      2          6           0       -0.136875    0.297795   -0.557533
      3          1           0        1.794331   -0.469689   -0.931571
      4          1           0        0.462180   -1.616220   -1.218272
      5          1           0        0.931245   -1.194588    0.446651
      6          6           0       -0.922246    1.215667   -0.577899
      7          1           0       -1.596401    2.008944   -0.616768
      8          8           0       -0.330764   -0.081220    1.900110
      9          1           0       -1.008231    0.634649    2.126662
 ---------------------------------------------------------------------
                    Distance matrix (angstroms):
                    1          2          3          4          5
     1  C    0.000000
     2  C    1.444152   0.000000
     3  H    1.100491   2.111514   0.000000
     4  H    1.100479   2.111610   1.780830   0.000000
     5  H    1.100584   2.092002   1.780419   1.780383   0.000000
     6  C    2.652101   1.208185   3.216411   3.216566   3.208498
     7  H    3.693403   2.249834   4.211862   4.212051   4.216926
     8  O    2.812861   2.494244   3.561651   3.565010   2.223690
     9  H    3.552250   2.842118   4.292634   4.291515   3.151208
                    6          7          8          9
     6  C    0.000000
     7  H    1.041769   0.000000
     8  O    2.858722   3.507891   0.000000
     9  H    2.767603   3.124266   1.011314   0.000000
 Symmetry turned off by external request.
 Stoichiometry    C3H5O(2)
 Framework group  C1[X(C3H5O)]
 Deg. of freedom    21
 Full point group                 C1      NOp   1
 Rotational constants (GHZ):      8.5184733      6.4067288      3.7431714
 Leave Link  202 at Fri Jan  8 02:43:15 2021, MaxMem=    33554432 cpu:         0.0
 (Enter /apps/applications/gaussian/G09.D01/2/default/g09/l301.exe)
 Standard basis: 3-21G (6D, 7F)
 Ernie: Thresh=  0.10000D-02 Tol=  0.10000D-05 Strict=F.
    46 basis functions,    75 primitive gaussians,    46 cartesian basis functions
    16 alpha electrons       15 beta electrons
       nuclear repulsion energy       100.3872342040 Hartrees.
 IExCor=  402 DFT=T Ex+Corr=B3LYP ExCW=0 ScaHFX=  0.200000
 ScaDFX=  0.800000  0.720000  1.000000  0.810000 ScalE2=  1.000000  1.000000
 IRadAn=      0 IRanWt=     -1 IRanGd=            0 ICorTp=0 IEmpDi=  4
 NAtoms=    9 NActive=    9 NUniq=    9 SFac= 1.00D+00 NAtFMM=   60 NAOKFM=F Big=F
 Integral buffers will be    131072 words long.
 Raffenetti 2 integral format.
 Two-electron integral symmetry is turned off.
 Leave Link  301 at Fri Jan  8 02:43:15 2021, MaxMem=    33554432 cpu:         0.0
 (Enter /apps/applications/gaussian/G09.D01/2/default/g09/l302.exe)
 NPDir=0 NMtPBC=     1 NCelOv=     1 NCel=       1 NClECP=     1 NCelD=      1
         NCelK=      1 NCelE2=     1 NClLst=     1 CellRange=     0.0.
 One-electron integrals computed using PRISM.
 NBasis=    46 RedAO= T EigKep=  1.24D-03  NBF=    46
 NBsUse=    46 1.00D-06 EigRej= -1.00D+00 NBFU=    46
 Precomputing XC quadrature grid using
 IXCGrd= 4 IRadAn=           0 IRanWt=          -1 IRanGd=           0 AccXCQ= 0.00D+00.
 Generated NRdTot=       0 NPtTot=           0 NUsed=           0 NTot=          32
 NSgBfM=    46    46    46    46    46 MxSgAt=     9 MxSgA2=     9.
 Leave Link  302 at Fri Jan  8 02:43:15 2021, MaxMem=    33554432 cpu:         0.1
 (Enter /apps/applications/gaussian/G09.D01/2/default/g09/l303.exe)
 DipDrv:  MaxL=1.
 Leave Link  303 at Fri Jan  8 02:43:15 2021, MaxMem=    33554432 cpu:         0.0
 (Enter /apps/applications/gaussian/G09.D01/2/default/g09/l401.exe)
 Initial guess from the checkpoint file:  "/nobackup/chmrsh/Scratch/Gau-39166.chk"
 B after Tr=     0.006742    0.002599   -0.031967
         Rot=    0.999997    0.002075    0.000941    0.000370 Ang=   0.26 deg.
 Guess basis will be translated and rotated to current coordinates.
 JPrj=2 DoOrth=T DoCkMO=T.
 Initial guess <Sx>= 0.0000 <Sy>= 0.0000 <Sz>= 0.5000 <S**2>= 0.7516 S= 0.5008
 Generating alternative initial guess.
 ExpMin= 1.83D-01 ExpMax= 3.22D+02 ExpMxC= 3.22D+02 IAcc=1 IRadAn=         1 AccDes= 0.00D+00
 Harris functional with IExCor=  402 and IRadAn=       1 diagonalized for initial guess.
 HarFok:  IExCor=  402 AccDes= 0.00D+00 IRadAn=         1 IDoV= 1 UseB2=F ITyADJ=14
 ICtDFT=  3500011 ScaDFX=  1.000000  1.000000  1.000000  1.000000
 FoFCou: FMM=F IPFlag=           0 FMFlag=      100000 FMFlg1=           0
         NFxFlg=           0 DoJE=T BraDBF=F KetDBF=T FulRan=T
         wScrn=  0.000000 ICntrl=     500 IOpCl=  0 I1Cent=   200000004 NGrid=           0
         NMat0=    1 NMatS0=      1 NMatT0=    0 NMatD0=    1 NMtDS0=    0 NMtDT0=    0
 Symmetry not used in FoFCou.
 Harris En= -191.330206297425    
 Leave Link  401 at Fri Jan  8 02:43:16 2021, MaxMem=    33554432 cpu:         0.2
 (Enter /apps/applications/gaussian/G09.D01/2/default/g09/l508.exe)
 Direct SCF.
 Tight linear equation convergence will be used.
 UB3LYP wavefunction.
 Quadratic Convergence SCF Method.
 Line search only if initial step raises energy.
 Two-electron integral symmetry not used.
 ReadGW:  IGet=1 IStart=         402 Next=         402 LGW=           0.
 Keep R1 and R2 ints in memory in canonical form, NReq=2054730.
 FoFCou: FMM=F IPFlag=           0 FMFlag=           0 FMFlg1=           0
         NFxFlg=           0 DoJE=F BraDBF=F KetDBF=F FulRan=T
         wScrn=  0.000000 ICntrl=     600 IOpCl=  0 I1Cent=           0 NGrid=           0
         NMat0=    1 NMatS0=   1081 NMatT0=    0 NMatD0=    1 NMtDS0=    0 NMtDT0=    0
 Symmetry not used in FoFCou.
 Iteration   1 EE= -191.321527479546                                    Grad=7.751D-02 Max rot=    1.0412 deg.
 Gradient too large for Newton-Raphson -- use scaled steepest descent instead.
 Alpha Gap=     0.550 HL deriv= 2.08D-03
  Beta Gap=     0.525 HL deriv= 2.12D-04
     ILin= 1 X=0.000D+00 Y=-1.913215274795D+02 DE= 0.00D+00 F= -7.53D-03
     ILin= 2 X=3.000D-01 Y=-1.913235009807D+02 DE=-1.97D-03 F= -5.63D-03
     ILin= 3 X=6.000D-01 Y=-1.913249044503D+02 DE=-3.38D-03 F= -3.73D-03
     ILin= 4 X=1.200D+00 Y=-1.913259957083D+02 DE=-4.47D-03 F=  9.14D-05
     Accept linear search using points  3 and  4.
     An  expanding polynomial of degree  4 produced  1.1163
     Minimum is close to point  4 DX= -8.37D-02 DF= -7.24D-06 DXR=  7.50D-02 DFR=  1.62D-03 which will be used.
 Iteration   2 EE= -191.325995708277     Delta-E=       -0.004468228732 Grad=4.352D-02 Max rot=    0.6521 deg.
 Gradient too large for Newton-Raphson -- use scaled steepest descent instead.
 Alpha Gap=     0.552 HL deriv= 1.07D-03
  Beta Gap=     0.533 HL deriv= 2.34D-05
     ILin= 1 X=0.000D+00 Y=-1.913259957083D+02 DE= 0.00D+00 F= -2.54D-03
     ILin= 2 X=6.000D-01 Y=-1.913270418262D+02 DE=-1.05D-03 F= -9.45D-04
     ILin= 3 X=1.200D+00 Y=-1.913271303397D+02 DE=-1.13D-03 F=  6.50D-04
     Accept linear search using points  2 and  3.
     An  expanding polynomial of degree  3 produced  0.9225
 Iteration   3 EE= -191.327208409728     Delta-E=       -0.001212701451 Grad=3.087D-02 Max rot=    0.6941 deg.
 Gradient too large for Newton-Raphson -- use scaled steepest descent instead.
 Alpha Gap=     0.551 HL deriv= 5.27D-04
  Beta Gap=     0.524 HL deriv= 6.97D-05
     ILin= 1 X=0.000D+00 Y=-1.913272084097D+02 DE= 0.00D+00 F= -1.40D-03
     ILin= 2 X=1.000D+00 Y=-1.913277747049D+02 DE=-5.66D-04 F=  2.63D-04
     Accept linear search using points  1 and  2.
     An  expanding polynomial of degree  2 produced  0.8415
 Iteration   4 EE= -191.327795524780     Delta-E=       -0.000587115052 Grad=2.774D-02 Max rot=    0.5852 deg.
 Gradient too large for Newton-Raphson -- use scaled steepest descent instead.
 Alpha Gap=     0.553 HL deriv= 2.13D-04
  Beta Gap=     0.533 HL deriv= 2.53D-05
     ILin= 1 X=0.000D+00 Y=-1.913277955248D+02 DE= 0.00D+00 F= -1.09D-03
     ILin= 2 X=9.000D-01 Y=-1.913281660525D+02 DE=-3.71D-04 F=  2.69D-04
     Accept linear search using points  1 and  2.
     An  expanding polynomial of degree  2 produced  0.6939
 Iteration   5 EE= -191.328189377951     Delta-E=       -0.000393853170 Grad=2.113D-02 Max rot=    0.4421 deg.
 Gradient too large for Newton-Raphson -- use scaled steepest descent instead.
 Alpha Gap=     0.552 HL deriv= 7.83D-05
  Beta Gap=     0.525 HL deriv= 3.09D-05
     ILin= 1 X=0.000D+00 Y=-1.913281893780D+02 DE= 0.00D+00 F= -6.65D-04
     ILin= 2 X=8.000D-01 Y=-1.913284833317D+02 DE=-2.94D-04 F= -6.99D-05
     Reject lnstep minimum 1.830D+00 FVal=-1.913285112792D+02 Lims=  0.00D+00  8.00D-01
     ILin= 3 X=1.500D+00 Y=-1.913283502849D+02 DE=-1.61D-04 F=  4.50D-04
     An  expanding polynomial of degree  3 produced  0.8943
 Iteration   6 EE= -191.328486615897     Delta-E=       -0.000297237947 Grad=2.218D-02 Max rot=    0.5505 deg.
 Gradient too large for Newton-Raphson -- use scaled steepest descent instead.
 Alpha Gap=     0.553 HL deriv= 2.60D-04
  Beta Gap=     0.532 HL deriv= 1.67D-05
     ILin= 1 X=0.000D+00 Y=-1.913284866159D+02 DE= 0.00D+00 F= -6.80D-04
     ILin= 2 X=8.000D-01 Y=-1.913287050179D+02 DE=-2.18D-04 F=  1.35D-04
     Accept linear search using points  1 and  2.
     An  expanding polynomial of degree  2 produced  0.6122
 Iteration   7 EE= -191.328712358319     Delta-E=       -0.000225742422 Grad=1.492D-02 Max rot=    0.3329 deg.
 Gradient too large for Newton-Raphson -- use scaled steepest descent instead.
 Alpha Gap=     0.553 HL deriv= 9.24D-05
  Beta Gap=     0.525 HL deriv= 1.13D-05
     ILin= 1 X=0.000D+00 Y=-1.913287123583D+02 DE= 0.00D+00 F= -3.33D-04
     ILin= 2 X=7.000D-01 Y=-1.913288763056D+02 DE=-1.64D-04 F= -1.35D-04
     ILin= 3 X=1.500D+00 Y=-1.913288938672D+02 DE=-1.82D-04 F=  9.11D-05
     Accept linear search using points  2 and  3.
     An  expanding polynomial of degree  3 produced  1.1548
 Iteration   8 EE= -191.328908480186     Delta-E=       -0.000196121867 Grad=1.914D-02 Max rot=    0.4692 deg.
 Gradient too large for Newton-Raphson -- use scaled steepest descent instead.
 Alpha Gap=     0.553 HL deriv= 2.17D-04
  Beta Gap=     0.531 HL deriv= 1.26D-05
     ILin= 1 X=0.000D+00 Y=-1.913289084802D+02 DE= 0.00D+00 F= -5.02D-04
     ILin= 2 X=8.000D-01 Y=-1.913290333062D+02 DE=-1.25D-04 F=  1.90D-04
     Accept linear search using points  1 and  2.
     An  expanding polynomial of degree  2 produced  0.5330
 Iteration   9 EE= -191.329053213909     Delta-E=       -0.000144733723 Grad=1.066D-02 Max rot=    0.2776 deg.
 Gradient too large for Newton-Raphson -- use scaled steepest descent instead.
 Alpha Gap=     0.553 HL deriv= 7.20D-05
  Beta Gap=     0.526 HL deriv= 5.16D-06
     ILin= 1 X=0.000D+00 Y=-1.913290532139D+02 DE= 0.00D+00 F= -1.69D-04
     ILin= 2 X=8.000D-01 Y=-1.913291562769D+02 DE=-1.03D-04 F= -8.85D-05
     ILin= 3 X=1.600D+00 Y=-1.913291948987D+02 DE=-1.42D-04 F= -8.06D-06
     Reject lnstep minimum 2.100D+00 FVal=-1.913291965049D+02 Lims=  8.00D-01  1.60D+00
     ILin= 4 X=3.100D+00 Y=-1.913290941029D+02 DE=-4.09D-05 F=  1.42D-04
     An  expanding polynomial of degree  4 produced  1.6802
     Minimum is close to point  3 DX=  8.02D-02 DF= -3.23D-07 DXR=  4.77D-02 DFR=  2.28D-03 which will be used.
 Iteration  10 EE= -191.329194898682     Delta-E=       -0.000141684773 Grad=1.637D-02 Max rot=    0.3720 deg.
 Gradient too large for Newton-Raphson -- use scaled steepest descent instead.
 Alpha Gap=     0.553 HL deriv= 1.83D-04
  Beta Gap=     0.530 HL deriv= 9.83D-06
     ILin= 1 X=0.000D+00 Y=-1.913291948987D+02 DE= 0.00D+00 F= -3.67D-04
     ILin= 2 X=9.000D-01 Y=-1.913292361705D+02 DE=-4.13D-05 F=  2.76D-04
     Accept linear search using points  1 and  2.
     An  expanding polynomial of degree  2 produced  0.5048
 Iteration  11 EE= -191.329289326197     Delta-E=       -0.000094427515 Grad=7.663D-03 Max rot=    0.2057 deg.
 QCNR:  CnvC1=3.07D-09 CnvC2=3.07D-08
 LinEq1:  Iter=  0 NonCon=     1 RMS=8.00D-04 Max=1.88D-02 NDo=     1
 AX will form     1 AO Fock derivatives at one time.
 LinEq1:  Iter=  1 NonCon=     1 RMS=9.94D-05 Max=1.70D-03 NDo=     1
 LinEq1:  Iter=  2 NonCon=     1 RMS=6.24D-05 Max=7.83D-04 NDo=     1
 LinEq1:  Iter=  3 NonCon=     1 RMS=5.99D-05 Max=7.17D-04 NDo=     1
 LinEq1:  Iter=  4 NonCon=     1 RMS=3.86D-05 Max=5.89D-04 NDo=     1
 LinEq1:  Iter=  5 NonCon=     1 RMS=2.04D-05 Max=3.42D-04 NDo=     1
 LinEq1:  Iter=  6 NonCon=     1 RMS=1.15D-05 Max=1.46D-04 NDo=     1
 LinEq1:  Iter=  7 NonCon=     1 RMS=7.50D-06 Max=8.78D-05 NDo=     1
 LinEq1:  Iter=  8 NonCon=     1 RMS=3.12D-06 Max=2.76D-05 NDo=     1
 LinEq1:  Iter=  9 NonCon=     1 RMS=1.51D-06 Max=1.36D-05 NDo=     1
 LinEq1:  Iter= 10 NonCon=     1 RMS=5.41D-07 Max=5.09D-06 NDo=     1
 LinEq1:  Iter= 11 NonCon=     1 RMS=1.12D-07 Max=1.15D-06 NDo=     1
 LinEq1:  Iter= 12 NonCon=     1 RMS=2.59D-08 Max=2.63D-07 NDo=     1
 LinEq1:  Iter= 13 NonCon=     1 RMS=3.69D-09 Max=2.31D-08 NDo=     1
 LinEq1:  Iter= 14 NonCon=     0 RMS=6.61D-10 Max=5.13D-09 NDo=     1
 Linear equations converged to 3.074D-09 3.074D-08 after    14 iterations.
 Angle between quadratic step and gradient=  30.56 degrees.
     ILin= 1 X=0.000D+00 Y=-1.913292893262D+02 DE= 0.00D+00 F= -5.26D-04
     ILin= 2 X=1.000D+00 Y=-1.913295521454D+02 DE=-2.63D-04 F= -1.20D-07
     Reject lnstep minimum 1.000D+00 FVal=-1.913295521454D+02 Lims=  0.00D+00  1.00D+00
     ILin= 3 X=1.900D+00 Y=-1.913293399346D+02 DE=-5.06D-05 F=  4.71D-04
     An  expanding polynomial of degree  3 produced  1.0007
     Minimum is close to point  2 DX=  7.50D-04 DF= -1.47D-10 DXR=  7.49D-04 DFR=  5.61D-07 which will be used.
 Iteration  12 EE= -191.329552145365     Delta-E=       -0.000262819168 Grad=2.561D-04 Max rot=    0.0042 deg.
 QCNR:  CnvC1=2.56D-09 CnvC2=2.56D-08
 LinEq1:  Iter=  0 NonCon=     1 RMS=9.58D-06 Max=1.85D-04 NDo=     1
 LinEq1:  Iter=  1 NonCon=     1 RMS=4.68D-06 Max=4.38D-05 NDo=     1
 LinEq1:  Iter=  2 NonCon=     1 RMS=2.13D-06 Max=3.19D-05 NDo=     1
 LinEq1:  Iter=  3 NonCon=     1 RMS=2.32D-06 Max=3.03D-05 NDo=     1
 LinEq1:  Iter=  4 NonCon=     1 RMS=1.54D-06 Max=1.73D-05 NDo=     1
 LinEq1:  Iter=  5 NonCon=     1 RMS=8.48D-07 Max=1.76D-05 NDo=     1
 LinEq1:  Iter=  6 NonCon=     1 RMS=3.87D-07 Max=5.14D-06 NDo=     1
 LinEq1:  Iter=  7 NonCon=     1 RMS=2.10D-07 Max=1.84D-06 NDo=     1
 LinEq1:  Iter=  8 NonCon=     1 RMS=1.19D-07 Max=1.11D-06 NDo=     1
 LinEq1:  Iter=  9 NonCon=     1 RMS=3.38D-08 Max=2.35D-07 NDo=     1
 LinEq1:  Iter= 10 NonCon=     1 RMS=7.00D-09 Max=6.10D-08 NDo=     1
 LinEq1:  Iter= 11 NonCon=     0 RMS=1.36D-09 Max=1.42D-08 NDo=     1
 Linear equations converged to 2.561D-09 2.561D-08 after    11 iterations.
 Angle between quadratic step and gradient=  52.16 degrees.
     ILin= 1 X=0.000D+00 Y=-1.913295521454D+02 DE= 0.00D+00 F= -6.48D-08
     ILin= 2 X=1.000D+00 Y=-1.913295521778D+02 DE=-3.24D-08 F=  3.29D-12
     Accept linear search using points  1 and  2.
     An  expanding polynomial of degree  2 produced  0.9999
     Minimum is close to point  2 DX= -5.08D-05 DF=  0.00D+00 DXR=  5.08D-05 DFR=  0.00D+00 which will be used.
 Iteration  13 EE= -191.329552177782     Delta-E=       -0.000000032417 Grad=9.592D-08 Max rot=    0.0000 deg.
 Rotation gradient small -- convergence achieved.
 SCF Done:  E(UB3LYP) =  -191.329552178     a.u. after   13 cycles
            Convg  =    0.9592D-07                    54 Fock formations.
              S**2 =  0.7522                  -V/T =  2.0085
 <Sx>= 0.0000 <Sy>= 0.0000 <Sz>= 0.5000 <S**2>= 0.7522 S= 0.5011
 <L.S>= 0.000000000000E+00
 Annihilation of the first spin contaminant:
 S**2 before annihilation     0.7522,   after     0.7500
 Leave Link  508 at Fri Jan  8 02:43:51 2021, MaxMem=    33554432 cpu:        35.7
 (Enter /apps/applications/gaussian/G09.D01/2/default/g09/l801.exe)
 DoSCS=F DFT=T ScalE2(SS,OS)=  1.000000  1.000000
 Range of M.O.s used for correlation:     1    46
 NBasis=    46 NAE=    16 NBE=    15 NFC=     0 NFV=     0
 NROrb=     46 NOA=    16 NOB=    15 NVA=    30 NVB=    31

 **** Warning!!: The largest alpha MO coefficient is  0.11109703D+02


 **** Warning!!: The largest beta MO coefficient is  0.11202282D+02

 Leave Link  801 at Fri Jan  8 02:43:52 2021, MaxMem=    33554432 cpu:         0.0
 (Enter /apps/applications/gaussian/G09.D01/2/default/g09/l1101.exe)
 Using compressed storage, NAtomX=     9.
 Will process     10 centers per pass.
 Leave Link 1101 at Fri Jan  8 02:43:52 2021, MaxMem=    33554432 cpu:         0.1
 (Enter /apps/applications/gaussian/G09.D01/2/default/g09/l1102.exe)
 Symmetrizing basis deriv contribution to polar:
 IMax=3 JMax=2 DiffMx= 0.00D+00
 Leave Link 1102 at Fri Jan  8 02:43:52 2021, MaxMem=    33554432 cpu:         0.0
 (Enter /apps/applications/gaussian/G09.D01/2/default/g09/l1110.exe)
 Forming Gx(P) for the SCF density, NAtomX=     9.
 Integral derivatives from FoFJK, PRISM(SPDF).
 Do as many integral derivatives as possible in FoFJK.
 G2DrvN: MDV=      33554256.
 G2DrvN: will do    10 centers at a time, making    1 passes.
 Calling FoFCou, ICntrl=  3107 FMM=F I1Cent=   0 AccDes= 0.00D+00.
 FoFJK:  IHMeth= 1 ICntrl=    3107 DoSepK=F KAlg= 0 I1Cent=   0 FoldK=F
 IRaf=         0 NMat=   1 IRICut=       1 DoRegI=T DoRafI=F ISym2E= 0.
 FoFCou: FMM=F IPFlag=           0 FMFlag=      100000 FMFlg1=           0
         NFxFlg=           0 DoJE=F BraDBF=F KetDBF=F FulRan=T
         wScrn=  0.000000 ICntrl=    3107 IOpCl=  1 I1Cent=           0 NGrid=           0
         NMat0=    1 NMatS0=      1 NMatT0=    0 NMatD0=    1 NMtDS0=    0 NMtDT0=    0
 Symmetry not used in FoFCou.
 End of G2Drv F.D. properties file   721 does not exist.
 End of G2Drv F.D. properties file   722 does not exist.
 End of G2Drv F.D. properties file   788 does not exist.
 Leave Link 1110 at Fri Jan  8 02:44:02 2021, MaxMem=    33554432 cpu:        10.1
 (Enter /apps/applications/gaussian/G09.D01/2/default/g09/l1002.exe)
 Minotr:  UHF open shell wavefunction.
          IDoAtm=111111111
          Direct CPHF calculation.
          Differentiating once with respect to electric field.
                with respect to dipole field.
          Differentiating once with respect to nuclear coordinates.
          Requested convergence is 1.0D-08 RMS, and 1.0D-07 maximum.
          Secondary convergence is 1.0D-12 RMS, and 1.0D-12 maximum.
          NewPWx=T KeepS1=F KeepF1=F KeepIn=T MapXYZ=F SortEE=F KeepMc=T.
          MDV=      33554246 using IRadAn=       2.
 Generate precomputed XC quadrature information.
 Keep R1 and R2 ints in memory in canonical form, NReq=2035813.
 FoFCou: FMM=F IPFlag=           0 FMFlag=           0 FMFlg1=           0
         NFxFlg=           0 DoJE=F BraDBF=F KetDBF=F FulRan=T
         wScrn=  0.000000 ICntrl=     600 IOpCl=  0 I1Cent=           0 NGrid=           0
         NMat0=    1 NMatS0=   1081 NMatT0=    0 NMatD0=    1 NMtDS0=    0 NMtDT0=    0
 Symmetry not used in FoFCou.
          Solving linear equations simultaneously, MaxMat=       0.
          There are    30 degrees of freedom in the 1st order CPHF.  IDoFFX=6 NUNeed=     3.
     27 vectors produced by pass  0 Test12= 3.15D-15 3.33D-09 XBig12= 5.29D+01 5.27D+00.
 AX will form    27 AO Fock derivatives at one time.
     27 vectors produced by pass  1 Test12= 3.15D-15 3.33D-09 XBig12= 1.41D+01 8.54D-01.
     27 vectors produced by pass  2 Test12= 3.15D-15 3.33D-09 XBig12= 8.65D-02 6.94D-02.
     27 vectors produced by pass  3 Test12= 3.15D-15 3.33D-09 XBig12= 8.56D-05 1.68D-03.
     27 vectors produced by pass  4 Test12= 3.15D-15 3.33D-09 XBig12= 2.32D-07 1.33D-04.
     22 vectors produced by pass  5 Test12= 3.15D-15 3.33D-09 XBig12= 6.07D-10 3.94D-06.
      6 vectors produced by pass  6 Test12= 3.15D-15 3.33D-09 XBig12= 9.33D-13 1.78D-07.
      3 vectors produced by pass  7 Test12= 3.15D-15 3.33D-09 XBig12= 3.01D-15 8.37D-09.
 InvSVY:  IOpt=1 It=  1 EMax= 2.66D-15
 Solved reduced A of dimension   166 with    30 vectors.
 FullF1:  Do perturbations    1 to     3.
 Isotropic polarizability for W=    0.000000       31.65 Bohr**3.
 End of Minotr F.D. properties file   721 does not exist.
 End of Minotr F.D. properties file   722 does not exist.
 End of Minotr F.D. properties file   788 does not exist.
 Leave Link 1002 at Fri Jan  8 02:44:11 2021, MaxMem=    33554432 cpu:         8.9
 (Enter /apps/applications/gaussian/G09.D01/2/default/g09/l701.exe)
 Compute integral second derivatives.
 ... and contract with generalized density number  0.
 Leave Link  701 at Fri Jan  8 02:44:11 2021, MaxMem=    33554432 cpu:         0.1
 (Enter /apps/applications/gaussian/G09.D01/2/default/g09/l702.exe)
 L702 exits ... SP integral derivatives will be done elsewhere.
 Leave Link  702 at Fri Jan  8 02:44:11 2021, MaxMem=    33554432 cpu:         0.0
 (Enter /apps/applications/gaussian/G09.D01/2/default/g09/l703.exe)
 Compute integral second derivatives, UseDBF=F ICtDFT=           0.
 Integral derivatives from FoFJK, PRISM(SPDF).
 Calling FoFJK, ICntrl=    100127 FMM=F ISym2X=0 I1Cent= 0 IOpClX= 1 NMat=1 NMatS=1 NMatT=0.
 FoFJK:  IHMeth= 1 ICntrl=  100127 DoSepK=F KAlg= 0 I1Cent=   0 FoldK=F
 IRaf=         0 NMat=   1 IRICut=       1 DoRegI=T DoRafI=F ISym2E= 0.
 FoFCou: FMM=F IPFlag=           0 FMFlag=      100000 FMFlg1=         800
         NFxFlg=           0 DoJE=F BraDBF=F KetDBF=F FulRan=T
         wScrn=  0.000000 ICntrl=  100127 IOpCl=  1 I1Cent=           0 NGrid=           0
         NMat0=    1 NMatS0=      1 NMatT0=    0 NMatD0=    1 NMtDS0=    0 NMtDT0=    0
 Symmetry not used in FoFCou.
 Leave Link  703 at Fri Jan  8 02:44:20 2021, MaxMem=    33554432 cpu:         8.7
 (Enter /apps/applications/gaussian/G09.D01/2/default/g09/l716.exe)
 Dipole        =-2.34333715D-01 2.58925628D-01 1.17107666D-02
 Polarizability= 2.93344733D+01-1.50308656D+01 3.39197878D+01
                -1.67539919D+00-1.96934867D+00 3.17039853D+01
 -------------------------------------------------------------------
 Center     Atomic                   Forces (Hartrees/Bohr)
 Number     Number              X              Y              Z
 -------------------------------------------------------------------
      1        6           0.012640689   -0.014990002    0.001249249
      2        6          -0.005253830    0.005334050    0.003020815
      3        1          -0.002518632    0.000086806   -0.000440716
      4        1           0.000311827    0.002534197    0.000155541
      5        1          -0.001696771    0.003211838   -0.005111265
      6        6           0.008689170   -0.010077395   -0.000105397
      7        1          -0.010652949    0.012561814   -0.000673867
      8        8          -0.001787751    0.001705853    0.001804778
      9        1           0.000268246   -0.000367161    0.000100863
 -------------------------------------------------------------------
 Cartesian Forces:  Max     0.014990002 RMS     0.005969125
 Force constants in Cartesian coordinates: 
                1             2             3             4             5 
      1  0.527173D+00
      2  0.975107D-03  0.525031D+00
      3 -0.388401D-02  0.447247D-02  0.527542D+00
      4 -0.162015D+00  0.109056D+00  0.341010D-02  0.677396D+00
      5  0.110033D+00 -0.194070D+00 -0.523264D-02 -0.673880D+00  0.882516D+00
      6 -0.461991D-03 -0.748765D-03 -0.622890D-01  0.472840D-02 -0.194439D-02
      7 -0.244548D+00 -0.690301D-01  0.734318D-01 -0.265984D-01  0.485108D-03
      8 -0.692761D-01 -0.726457D-01  0.263253D-01  0.324008D-01  0.650194D-02
      9  0.735097D-01  0.262405D-01 -0.734251D-01 -0.109182D-02 -0.201370D-02
     10 -0.745903D-01 -0.595767D-01 -0.492689D-01  0.635624D-02  0.235292D-01
     11 -0.593880D-01 -0.181902D+00 -0.108683D+00 -0.276129D-02 -0.283048D-01
     12 -0.491749D-01 -0.108822D+00 -0.134169D+00  0.365597D-02  0.929262D-03
     13 -0.507211D-01  0.703219D-02 -0.240542D-01 -0.758264D-02  0.122985D-01
     14  0.767397D-02 -0.791561D-01  0.816432D-01  0.719613D-02 -0.171359D-01
     15 -0.266378D-01  0.847004D-01 -0.264724D+00 -0.349271D-02  0.258257D-02
     16  0.356876D-02  0.427658D-02 -0.167829D-02 -0.492084D+00  0.530023D+00
     17  0.368642D-02  0.215317D-02  0.186908D-02  0.532278D+00 -0.656846D+00
     18  0.715680D-03 -0.922641D-03  0.725430D-02 -0.134937D-01  0.147480D-01
     19  0.346918D-02  0.268569D-02 -0.132121D-03  0.568342D-02 -0.262457D-02
     20  0.260537D-02  0.266147D-02  0.240115D-03 -0.282434D-02  0.662434D-02
     21  0.184422D-03 -0.127613D-03  0.539768D-02  0.602452D-03 -0.733145D-03
     22 -0.253895D-02  0.390131D-02  0.181040D-02  0.293826D-03 -0.154552D-02
     23  0.334352D-02 -0.263392D-02 -0.162490D-03 -0.302388D-02  0.303827D-02
     24  0.399675D-02 -0.274317D-02 -0.645291D-02  0.604927D-02 -0.900970D-02
     25  0.202225D-03  0.679579D-03  0.365157D-03 -0.144956D-02  0.168079D-02
     26  0.346475D-03  0.561878D-03 -0.472025D-03  0.155814D-02 -0.232342D-02
     27  0.175225D-02 -0.204887D-02  0.865905D-03 -0.368016D-03  0.673729D-03
                6             7             8             9            10 
      6  0.840605D-01
      7  0.701999D-02  0.275362D+00
      8 -0.115106D-01  0.718864D-01  0.816462D-01
      9 -0.178526D-02 -0.829824D-01 -0.285708D-01  0.784093D-01
     10  0.180378D-01 -0.101244D-01 -0.227055D-01 -0.199555D-01  0.827086D-01
     11 -0.157113D-01 -0.411926D-02 -0.832927D-02 -0.616947D-02  0.614728D-01
     12  0.630005D-04  0.360323D-02  0.100991D-01  0.670338D-02  0.539550D-01
     13 -0.239569D-01  0.396854D-02 -0.113137D-01  0.301843D-01 -0.255588D-02
     14  0.263703D-01  0.691921D-03 -0.501082D-02  0.103131D-01 -0.263977D-02
     15  0.373097D-02 -0.713493D-03  0.247948D-02 -0.934956D-02 -0.128454D-02
     16 -0.439158D-02  0.141068D-02  0.829283D-05 -0.147159D-03 -0.120339D-02
     17  0.415863D-02 -0.247870D-03 -0.173451D-02  0.101622D-02  0.534835D-03
     18 -0.330027D-01  0.102698D-04  0.584354D-03  0.794581D-03 -0.987815D-03
     19 -0.183057D-03  0.498212D-03 -0.777526D-03  0.806184D-04 -0.532160D-03
     20  0.176639D-03  0.431632D-03 -0.644023D-03  0.651405D-04 -0.481583D-03
     21  0.353134D-02 -0.196769D-03  0.361846D-03  0.365876D-04 -0.592491D-03
     22  0.129980D-03  0.497288D-04 -0.154761D-03  0.335084D-03 -0.135921D-03
     23 -0.205484D-02 -0.197592D-05  0.807446D-04 -0.580059D-03 -0.109451D-03
     24  0.677049D-02 -0.158960D-04  0.327497D-04 -0.125219D-02  0.229471D-03
     25 -0.922631D-03 -0.176466D-04 -0.678335D-04  0.672518D-04  0.771924D-04
     26  0.126437D-02 -0.957904D-04  0.135437D-03 -0.300813D-03 -0.238826D-04
     27 -0.107935D-02 -0.156712D-03  0.198659D-03 -0.131736D-03 -0.133012D-03
               11            12            13            14            15 
     11  0.206411D+00
     12  0.122783D+00  0.146356D+00
     13  0.422422D-02 -0.115976D-01  0.584969D-01
     14  0.103135D-01 -0.251778D-01 -0.146365D-01  0.917837D-01
     15  0.654376D-02 -0.181630D-01  0.270182D-01 -0.920460D-01  0.294364D+00
     16  0.437894D-03 -0.142682D-02 -0.639919D-03  0.166539D-02  0.147047D-02
     17  0.124943D-02  0.569258D-03  0.165479D-02 -0.471336D-03 -0.132465D-02
     18  0.303111D-03  0.425623D-03  0.156197D-02 -0.143268D-02 -0.403975D-03
     19  0.535821D-03 -0.103519D-03 -0.124860D-03  0.164386D-03  0.357373D-04
     20  0.463339D-03 -0.986190D-04 -0.282365D-04  0.506845D-04  0.243651D-04
     21  0.494479D-03 -0.405073D-04  0.803677D-03 -0.869288D-03 -0.239442D-03
     22 -0.177325D-03  0.793649D-03 -0.148596D-02  0.178642D-02  0.432925D-02
     23  0.106156D-03 -0.164726D-03  0.290769D-02 -0.154252D-02 -0.382748D-02
     24  0.274083D-03 -0.108884D-02 -0.200912D-03  0.146639D-02 -0.399914D-02
     25 -0.224901D-03  0.295104D-03  0.644874D-03 -0.190197D-02 -0.725089D-03
     26 -0.766394D-05 -0.116727D-03 -0.213889D-02  0.116873D-02  0.867577D-03
     27  0.165867D-03 -0.865029D-04  0.241496D-03 -0.267192D-03 -0.121494D-02
               16            17            18            19            20 
     16  0.698171D+00
     17 -0.764533D+00  0.940777D+00
     18  0.228182D-01 -0.271240D-01  0.471172D-01
     19 -0.209458D+00  0.226721D+00 -0.104981D-01  0.200282D+00
     20  0.226960D+00 -0.283507D+00  0.123050D-01 -0.226736D+00  0.274257D+00
     21 -0.114307D-01  0.133912D-01 -0.167343D-01  0.107844D-01 -0.128345D-01
     22 -0.659250D-03  0.942039D-03  0.121246D-02 -0.678161D-04 -0.106271D-03
     23  0.259484D-02 -0.254584D-02 -0.124410D-03 -0.222021D-03 -0.574744D-04
     24 -0.542865D-02  0.759908D-02 -0.475790D-02  0.111379D-03 -0.217491D-03
     25  0.894624D-03 -0.103659D-02 -0.133903D-02  0.250269D-03  0.179534D-03
[...]
 Translational            0.889              2.981             38.044
 Rotational               0.889              2.981             25.066
 Vibrational             43.544             13.120             11.070
 Vibration     1          0.618              1.903              2.671
 Vibration     2          0.631              1.860              2.275
 Vibration     3          0.678              1.716              1.553
 Vibration     4          0.688              1.688              1.459
 Vibration     5          0.729              1.570              1.154
 Vibration     6          0.740              1.540              1.093
                       Q            Log10(Q)             Ln(Q)
 Total Bot       0.720078D-17        -17.142621        -39.472343
 Total V=0       0.215473D+14         13.333392         30.701270
 Vib (Bot)       0.317029D-29        -29.498901        -67.923729
 Vib (Bot)    1  0.135098D+01          0.130650          0.300833
 Vib (Bot)    2  0.108245D+01          0.034406          0.079223
 Vib (Bot)    3  0.695696D+00         -0.157580         -0.362842
 Vib (Bot)    4  0.652666D+00         -0.185309         -0.426690
 Vib (Bot)    5  0.522315D+00         -0.282067         -0.649484
 Vib (Bot)    6  0.497254D+00         -0.303422         -0.698654
 Vib (V=0)       0.948663D+01          0.977112          2.249883
 Vib (V=0)    1  0.194054D+01          0.287923          0.662966
 Vib (V=0)    2  0.169235D+01          0.228489          0.526115
 Vib (V=0)    3  0.135673D+01          0.132495          0.305080
 Vib (V=0)    4  0.132218D+01          0.121289          0.279278
 Vib (V=0)    5  0.122306D+01          0.087447          0.201354
 Vib (V=0)    6  0.120517D+01          0.081048          0.186619
 Electronic      0.200000D+01          0.301030          0.693147
 Translational   0.169300D+08          7.228656         16.644596
 Rotational      0.670801D+05          4.826594         11.113643
 
                                                    Gaussian input prepared by AS
 E
                                                             IR Spectrum
 
     3      3      33 3                            2                       11   1          11                                        
     4      3      11 0                            2                       55   4          11      9      77           3322   11     
     9      1      30 5                            3                       64   5          10      1      20           6597   85     
     6      0      49 2                            1                       93   0          75      7      07           7337   50     
 
     X      X       X X                            X                       XX   X          XX      X      XX           XXXX   XX     
     X      X       X X                            X                       X    X           X             XX           XXXX   XX     
     X                X                                                                     X             XX           XXXX   XX     
     X                                                                                                    XX           XXXX          
     X                                                                                                    XX           XXXX          
     X                                                                                                    XX           X XX          
     X                                                                                                    XX           X XX          
     X                                                                                                    XX           X XX          
     X                                                                                                    XX           X XX          
     X                                                                                                    XX           X XX          
     X                                                                                                    XX           X XX          
     X                                                                                                    XX           X  X          
     X                                                                                                    XX           X  X          
     X                                                                                                                 X  X          
                                                                                                                       X  X          
                                                                                                                       X  X          
                                                                                                                       X  X          
                                                                                                                       X             
                                                                                                                       X             
                                                                                                                       X             
 
 -------------------------------------------------------------------
 Center     Atomic                   Forces (Hartrees/Bohr)
 Number     Number              X              Y              Z
 -------------------------------------------------------------------
      1        6          -0.000000535   -0.000003227    0.000000106
      2        6           0.000000501    0.000000076   -0.000000130
      3        1          -0.000002867   -0.000002602    0.000001182
      4        1          -0.000000187    0.000001820    0.000001841
      5        1          -0.000000992   -0.000000185   -0.000002439
      6        6           0.000002455    0.000001701   -0.000000391
      7        1           0.000001668    0.000001197   -0.000000222
      8        8          -0.000006242   -0.000000716   -0.000001288
      9        1           0.000006199    0.000001935    0.000001341
 -------------------------------------------------------------------
 Cartesian Forces:  Max     0.000006242 RMS     0.000002273
 Force constants in Cartesian coordinates: 
                1             2             3             4             5 
      1  0.517623D+00
      2  0.335503D-01  0.506455D+00
      3 -0.961691D-02  0.134084D-01  0.549391D+00
      4 -0.143639D+00  0.897028D-01 -0.293316D-02  0.640917D+00
      5  0.896030D-01 -0.179625D+00  0.319918D-02 -0.651740D+00  0.886759D+00
      6 -0.408124D-02  0.438263D-02 -0.646410D-01  0.102130D-01 -0.148612D-01
      7 -0.244987D+00 -0.594487D-01  0.938988D-01 -0.251398D-01  0.166519D-02
      8 -0.596058D-01 -0.642630D-01  0.285437D-01  0.317216D-01  0.443177D-02
      9  0.944387D-01  0.284497D-01 -0.903806D-01 -0.406298D-02 -0.291336D-02
     10 -0.836980D-01 -0.772217D-01 -0.484836D-01  0.772030D-02  0.244255D-01
     11 -0.771476D-01 -0.207708D+00 -0.993935D-01 -0.402220D-02 -0.293685D-01
     12 -0.484959D-01 -0.996324D-01 -0.108513D+00  0.406930D-02  0.361236D-02
     13 -0.527022D-01  0.421178D-02 -0.345002D-01 -0.870075D-02  0.106675D-01
     14  0.451010D-02 -0.594455D-01  0.557035D-01  0.907809D-02 -0.143775D-01
     15 -0.353494D-01  0.577003D-01 -0.293930D+00 -0.533271D-02  0.612023D-02
     16  0.351992D-02  0.316287D-02 -0.274081D-04 -0.475229D+00  0.527411D+00
     17  0.373726D-02  0.353332D-02  0.413135D-03  0.528469D+00 -0.674057D+00
     18  0.232859D-03  0.519660D-04  0.693276D-02 -0.941598D-02  0.113726D-01
     19  0.361414D-02  0.256375D-02 -0.163010D-03  0.505595D-02 -0.171006D-02
     20  0.249907D-02  0.248861D-02 -0.211696D-04 -0.328241D-02  0.697925D-02
     21 -0.376842D-03  0.273826D-03  0.518076D-02  0.142372D-02 -0.147324D-02
     22  0.162709D-03  0.260222D-02  0.126616D-02 -0.641360D-03 -0.930365D-03
     23  0.355875D-02 -0.137879D-02 -0.130635D-02  0.199532D-03 -0.929791D-03
     24  0.336185D-02 -0.406444D-02 -0.392234D-02  0.551193D-02 -0.627160D-02
     25  0.107774D-03  0.876629D-03  0.559356D-03 -0.343033D-03  0.608533D-03
     26 -0.705060D-03 -0.567437D-04 -0.546852D-03 -0.127029D-03  0.188223D-03
     27 -0.113098D-03 -0.569959D-03 -0.117801D-03  0.526906D-03  0.121503D-02
                6             7             8             9            10 
      6  0.958890D-01
      7  0.793802D-02  0.274025D+00
      8 -0.142729D-01  0.601983D-01  0.727258D-01
      9 -0.257178D-03 -0.104693D+00 -0.305119D-01  0.959962D-01
     10  0.147493D-01 -0.111561D-01 -0.243132D-01 -0.164388D-01  0.924865D-01
     11 -0.122317D-01 -0.369347D-02 -0.697094D-02 -0.394843D-02  0.805904D-01
     12  0.313050D-03  0.515716D-02  0.129065D-01  0.668702D-02  0.525298D-01
     13 -0.250806D-01  0.562328D-02 -0.732382D-02  0.307774D-01 -0.343602D-02
     14  0.300733D-01  0.113745D-02 -0.342115D-02  0.855871D-02 -0.353762D-02
     15 -0.104170D-03 -0.184384D-02  0.177725D-02 -0.115296D-01 -0.920722D-03
     16 -0.495730D-02  0.113103D-02  0.230490D-03 -0.842640D-04 -0.135125D-02
     17  0.574036D-02 -0.184151D-03 -0.182794D-02  0.114967D-02  0.532575D-03
     18 -0.348226D-01 -0.232371D-05  0.828226D-03  0.541478D-03 -0.109037D-02
     19 -0.100520D-03  0.491066D-03 -0.774893D-03  0.165736D-03 -0.614318D-03
     20  0.378077D-03  0.416700D-03 -0.619138D-03  0.130905D-03 -0.490107D-03
     21  0.320644D-02 -0.263209D-03  0.486844D-03  0.890268D-05 -0.450935D-03
     22  0.182170D-02 -0.245387D-04 -0.130853D-03  0.295056D-03 -0.147356D-04
     23  0.557463D-03 -0.166207D-03  0.141246D-03 -0.120302D-02 -0.143694D-03
     24  0.467152D-02 -0.785108D-04  0.109012D-03 -0.123251D-02  0.960349D-04
     25 -0.502294D-03  0.370013D-04 -0.190694D-05 -0.398052D-03  0.635867D-04
     26  0.233983D-03  0.748417D-04 -0.196616D-03  0.287762D-03  0.157861D-03
     27 -0.425504D-02 -0.113221D-03  0.133269D-03  0.166319D-03  0.926145D-05
               11            12            13            14            15 
     11  0.234421D+00
     12  0.111427D+00  0.115632D+00
     13  0.350426D-02 -0.127368D-01  0.613390D-01
     14  0.800208D-02 -0.277878D-01 -0.114406D-01  0.705962D-01
     15  0.329881D-02 -0.132213D-01  0.405667D-01 -0.651867D-01  0.323549D+00
     16  0.444945D-03 -0.130956D-02 -0.513879D-03  0.172121D-02  0.177414D-02
     17  0.114619D-02  0.284382D-03  0.164001D-02 -0.107412D-02 -0.209708D-02
     18  0.221056D-03  0.501217D-03  0.142115D-02 -0.154084D-02 -0.559436D-03
     19  0.583883D-03 -0.116699D-03 -0.652149D-04  0.708045D-04 -0.172338D-04
     20  0.450003D-03 -0.107906D-03  0.157873D-05  0.191204D-04  0.192102D-04
     21  0.408185D-03 -0.496403D-04  0.769557D-03 -0.823866D-03 -0.355122D-04
     22 -0.192785D-03  0.741744D-03 -0.437026D-03 -0.632063D-03  0.145723D-02
     23  0.166185D-03 -0.482877D-03 -0.233195D-02 -0.128841D-02 -0.220518D-02
     24  0.145704D-03 -0.132843D-02 -0.150236D-02  0.693814D-03 -0.448724D-02
     25 -0.673820D-04  0.160900D-03 -0.110713D-02 -0.907383D-03 -0.334190D-03
     26 -0.138162D-03 -0.219357D-03  0.107124D-02  0.989227D-03  0.573215D-03
     27  0.728895D-04 -0.208247D-04  0.285077D-03  0.309892D-03  0.318756D-03
               16            17            18            19            20 
     16  0.654544D+00
     17 -0.729347D+00  0.940545D+00
     18  0.162606D-01 -0.203942D-01  0.531817D-01
     19 -0.181889D+00  0.194945D+00 -0.719650D-02  0.173217D+00
     20  0.196403D+00 -0.267918D+00  0.909659D-02 -0.195633D+00  0.258719D+00
     21 -0.836696D-02  0.104907D-01 -0.242826D-01  0.732985D-02 -0.964398D-02
     22 -0.708183D-03  0.227581D-03  0.118350D-02  0.675528D-04  0.106028D-03
     23 -0.411760D-03  0.401122D-03  0.360621D-03  0.160602D-04  0.688944D-04
     24 -0.357810D-02  0.474065D-02 -0.234338D-03  0.165520D-03 -0.662162D-04
     25  0.495528D-03 -0.205111D-04 -0.139295D-02  0.122994D-03 -0.208527D-04
     26  0.385424D-03 -0.748925D-03  0.398499D-05 -0.611157D-04 -0.187982D-03
     27  0.288851D-03 -0.327581D-03 -0.125824D-02 -0.671394D-04  0.214494D-03
               21            22            23            24            25 
     21  0.158794D-01
     22 -0.506291D-04  0.342157D+00
     23 -0.373936D-03  0.912174D-01  0.300691D-01
     24  0.854094D-04  0.898127D-01  0.320986D-01  0.316314D-01
     25 -0.145435D-04 -0.340561D+00 -0.919382D-01 -0.937890D-01  0.341184D+00
     26  0.655508D-03 -0.922672D-01 -0.272495D-01 -0.273855D-01  0.914710D-01
     27  0.682642D-05 -0.965274D-01 -0.274453D-01 -0.251835D-01  0.957108D-01
               26            27 
     26  0.274005D-01
     27  0.263973D-01  0.303435D-01
 Leave Link  716 at Fri Jan  8 03:18:02 2021, MaxMem=    33554432 cpu:         0.0
 (Enter /apps/applications/gaussian/G09.D01/2/default/g09/l9999.exe)
 1\1\GINC-DC1S1B1B\Freq\UB3LYP\3-21G\C3H5O1(2)\CHMRSH\08-Jan-2021\0\\#P
  b3lyp/3-21G scf=qc opt(calcall, ts, noeigentest, cartesian,maxcycle=1
 00) NoSymm\\Gaussian input prepared by ASE\\0,2\C,0.7839640353,-0.7933
 112595,-0.5425463238\C,-0.1494719766,0.3333255351,-0.5967705083\H,1.74
 73433611,-0.5246085849,-0.9907028985\H,0.3857870018,-1.6661988231,-1.0
 725341096\H,0.9343873047,-1.0359254071,0.5136393316\C,-0.9232345133,1.
 2618897211,-0.6070879149\H,-1.5879965176,2.0889860906,-0.6396431176\O,
 -0.1237370986,0.2973872469,2.0997479308\H,-1.0670415969,0.0384554811,1
 .8358976102\\Version=ES64L-G09RevD.01\HF=-191.3327577\S2=0.751592\S2-1
 =0.\S2A=0.750001\RMSD=0.000e+00\RMSF=2.273e-06\ZeroPoint=0.0662569\The
 rmal=0.0722249\Dipole=-0.4507818,-0.3601837,-0.2142733\DipoleDeriv=0.0
 298514,0.038111,-0.0147471,0.0261465,0.040482,0.0358791,-0.0134403,0.0
 349193,-0.0121835,0.0589026,-0.1391963,-0.1768197,-0.1237297,0.0580082
 ,0.1947771,-0.006658,0.0227596,-0.1857524,-0.0574385,-0.0035388,0.0730
 908,-0.0055149,0.0516651,0.0135122,0.0744585,0.0132888,0.0841561,0.045
 9636,-0.0245967,-0.0339929,-0.0140252,-0.0570066,-0.0805638,-0.0270585
 ,-0.0785214,0.0650572,0.1083039,-0.0008027,-0.0463261,0.0014514,0.0786
 51,0.0857054,-0.0486219,0.0564159,0.0641164,-0.3755226,0.1009101,0.128
 9539,0.0716935,-0.3520339,-0.1451959,0.0220953,-0.010686,-0.3778425,0.
 2217426,0.0053531,0.0012811,0.0142519,0.2150476,-0.0056847,-0.0039114,
 0.0064877,0.2250251,-0.0143357,0.1120713,0.1977494,0.1139291,-0.305853
 3,-0.0867584,0.1082076,-0.0173862,-0.1916409,-0.0174673,-0.088311,-0.1
 291894,-0.0842027,0.2710399,-0.0116711,-0.1050713,-0.0272776,0.3290644
 \Polar=31.2384957,-12.233381,33.0618087,0.4159875,-1.4057772,28.767352
 9\PG=C01 [X(C3H5O1)]\NImag=1\\0.51762262,0.03355027,0.50645515,-0.0096
 1691,0.01340837,0.54939102,-0.14363948,0.08970284,-0.00293316,0.640916
 95,0.08960301,-0.17962512,0.00319918,-0.65173981,0.88675863,-0.0040812
 4,0.00438263,-0.06464100,0.01021298,-0.01486120,0.09588897,-0.24498749
 ,-0.05944868,0.09389875,-0.02513977,0.00166519,0.00793802,0.27402549,-
 0.05960575,-0.06426302,0.02854366,0.03172159,0.00443177,-0.01427287,0.
 06019833,0.07272578,0.09443873,0.02844970,-0.09038058,-0.00406298,-0.0
 0291336,-0.00025718,-0.10469282,-0.03051194,0.09599620,-0.08369795,-0.
 07722169,-0.04848358,0.00772030,0.02442547,0.01474929,-0.01115607,-0.0
 2431319,-0.01643883,0.09248645,-0.07714765,-0.20770793,-0.09939346,-0.
 00402220,-0.02936851,-0.01223174,-0.00369347,-0.00697094,-0.00394843,0
 .08059039,0.23442109,-0.04849593,-0.09963236,-0.10851261,0.00406930,0.
 00361236,0.00031305,0.00515716,0.01290654,0.00668702,0.05252985,0.1114
 2699,0.11563155,-0.05270224,0.00421178,-0.03450019,-0.00870075,0.01066
 750,-0.02508063,0.00562328,-0.00732382,0.03077743,-0.00343602,0.003504
 26,-0.01273676,0.06133898,0.00451010,-0.05944547,0.05570349,0.00907809
 ,-0.01437750,0.03007330,0.00113745,-0.00342115,0.00855871,-0.00353762,
 0.00800208,-0.02778778,-0.01144060,0.07059622,-0.03534941,0.05770026,-
 0.29393021,-0.00533271,0.00612023,-0.00010417,-0.00184384,0.00177725,-
 0.01152964,-0.00092072,0.00329881,-0.01322134,0.04056674,-0.06518672,0
 .32354879,0.00351992,0.00316287,-0.00002741,-0.47522882,0.52741055,-0.
 00495730,0.00113103,0.00023049,-0.00008426,-0.00135125,0.00044494,-0.0
 0130956,-0.00051388,0.00172121,0.00177414,0.65454436,0.00373726,0.0035
 3332,0.00041313,0.52846939,-0.67405696,0.00574036,-0.00018415,-0.00182
 794,0.00114967,0.00053258,0.00114619,0.00028438,0.00164001,-0.00107412
 ,-0.00209708,-0.72934681,0.94054495,0.00023286,0.00005197,0.00693276,-
 0.00941598,0.01137259,-0.03482259,-0.00000232,0.00082823,0.00054148,-0
 .00109037,0.00022106,0.00050122,0.00142115,-0.00154084,-0.00055944,0.0
 1626061,-0.02039420,0.05318174,0.00361414,0.00256375,-0.00016301,0.005
 05595,-0.00171006,-0.00010052,0.00049107,-0.00077489,0.00016574,-0.000
 61432,0.00058388,-0.00011670,-0.00006521,0.00007080,-0.00001723,-0.181
 88870,0.19494466,-0.00719650,0.17321653,0.00249907,0.00248861,-0.00002
 117,-0.00328241,0.00697925,0.00037808,0.00041670,-0.00061914,0.0001309
 1,-0.00049011,0.00045000,-0.00010791,0.00000158,0.00001912,0.00001921,
 0.19640309,-0.26791763,0.00909659,-0.19563309,0.25871886,-0.00037684,0
 .00027383,0.00518076,0.00142372,-0.00147324,0.00320644,-0.00026321,0.0
 0048684,0.00000890,-0.00045094,0.00040818,-0.00004964,0.00076956,-0.00
 082387,-0.00003551,-0.00836696,0.01049066,-0.02428258,0.00732985,-0.00
 964398,0.01587939,0.00016271,0.00260222,0.00126616,-0.00064136,-0.0009
 3037,0.00182170,-0.00002454,-0.00013085,0.00029506,-0.00001474,-0.0001
 9278,0.00074174,-0.00043703,-0.00063206,0.00145723,-0.00070818,0.00022
 758,0.00118350,0.00006755,0.00010603,-0.00005063,0.34215655,0.00355875
 ,-0.00137879,-0.00130635,0.00019953,-0.00092979,0.00055746,-0.00016621
 ,0.00014125,-0.00120302,-0.00014369,0.00016619,-0.00048288,-0.00233195
 ,-0.00128841,-0.00220518,-0.00041176,0.00040112,0.00036062,0.00001606,
 0.00006889,-0.00037394,0.09121743,0.03006907,0.00336185,-0.00406444,-0
 .00392234,0.00551193,-0.00627160,0.00467152,-0.00007851,0.00010901,-0.
 00123251,0.00009603,0.00014570,-0.00132843,-0.00150236,0.00069381,-0.0
 0448724,-0.00357810,0.00474065,-0.00023434,0.00016552,-0.00006622,0.00
 008541,0.08981266,0.03209861,0.03163139,0.00010777,0.00087663,0.000559
 36,-0.00034303,0.00060853,-0.00050229,0.00003700,-0.00000191,-0.000398
 05,0.00006359,-0.00006738,0.00016090,-0.00110713,-0.00090738,-0.000334
 19,0.00049553,-0.00002051,-0.00139295,0.00012299,-0.00002085,-0.000014
 54,-0.34056097,-0.09193816,-0.09378902,0.34118426,-0.00070506,-0.00005
 674,-0.00054685,-0.00012703,0.00018822,0.00023398,0.00007484,-0.000196
 62,0.00028776,0.00015786,-0.00013816,-0.00021936,0.00107124,0.00098923
 ,0.00057321,0.00038542,-0.00074893,0.00000398,-0.00006112,-0.00018798,
 0.00065551,-0.09226719,-0.02724953,-0.02738553,0.09147104,0.02740051,-
 0.00011310,-0.00056996,-0.00011780,0.00052691,0.00121503,-0.00425504,-
 0.00011322,0.00013327,0.00016632,0.00000926,0.00007289,-0.00002082,0.0
 0028508,0.00030989,0.00031876,0.00028885,-0.00032758,-0.00125824,-0.00
 006714,0.00021449,0.00000683,-0.09652743,-0.02744533,-0.02518347,0.095
 71079,0.02639729,0.03034347\\0.00000053,0.00000323,-0.00000011,-0.0000
 0050,-0.00000008,0.00000013,0.00000287,0.00000260,-0.00000118,0.000000
 19,-0.00000182,-0.00000184,0.00000099,0.00000018,0.00000244,-0.0000024
 5,-0.00000170,0.00000039,-0.00000167,-0.00000120,0.00000022,0.00000624
 ,0.00000072,0.00000129,-0.00000620,-0.00000194,-0.00000134\\\@


 IT IS WELL TO REMEMBER THAT MAN IS A PART OF NATURE AND THAT HIS WORKS,
 WHATEVER THEY MAY BE, ARE NO MORE "UNNATURAL" THAN 
 THE FLIGHT OF AN EAGLE OR THE PASSAGE OF A TORNADO.

                                    -- CHARLES MCCARRY IN "THE GREAT SOUTHWEST"
 Job cpu time:       0 days  0 hours 35 minutes 32.5 seconds.
 File lengths (MBytes):  RWF=      9 Int=      0 D2E=      0 Chk=      1 Scr=      1
 Normal termination of Gaussian 09 at Fri Jan  8 03:18:02 2021.
