 Entering Gaussian System, Link 0=g09
 Initial command:
 /apps/applications/gaussian/G09.D01/2/default/g09/l1.exe "/nobackup/chmrsh/Scratch/Gau-42777.inp" -scrdir="/nobackup/chmrsh/Scratch/"
 Entering Link 1 = /apps/applications/gaussian/G09.D01/2/default/g09/l1.exe PID=     42778.
  
 Copyright (c) 1988,1990,1992,1993,1995,1998,2003,2009,2013,
            Gaussian, Inc.  All Rights Reserved.
  
 This is part of the Gaussian(R) 09 program.  It is based on
 the Gaussian(R) 03 system (copyright 2003, Gaussian, Inc.),
 the Gaussian(R) 98 system (copyright 1998, Gaussian, Inc.),
 the Gaussian(R) 94 system (copyright 1995, Gaussian, Inc.),
 the Gaussian 92(TM) system (copyright 1992, Gaussian, Inc.),
 the Gaussian 90(TM) system (copyright 1990, Gaussian, Inc.),
 the Gaussian 88(TM) system (copyright 1988, Gaussian, Inc.),
 the Gaussian 86(TM) system (copyright 1986, Carnegie Mellon
 University), and the Gaussian 82(TM) system (copyright 1983,
 Carnegie Mellon University). Gaussian is a federally registered
 trademark of Gaussian, Inc.
  
 This software contains proprietary and confidential information,
 including trade secrets, belonging to Gaussian, Inc.
  
 This software is provided under written license and may be
 used, copied, transmitted, or stored only in accord with that
 written license.
  
 The following legend is applicable only to US Government
 contracts under FAR:
  
                    RESTRICTED RIGHTS LEGEND
  
 Use, reproduction and disclosure by the US Government is
 subject to restrictions as set forth in subparagraphs (a)
 and (c) of the Commercial Computer Software - Restricted
 Rights clause in FAR 52.227-19.
  
 Gaussian, Inc.
 340 Quinnipiac St., Bldg. 40, Wallingford CT 06492
  
  
 ---------------------------------------------------------------
 Warning -- This program may not be used in any manner that
 competes with the business of Gaussian, Inc. or will provide
 assistance to any competitor of Gaussian, Inc.  The licensee
 of this program is prohibited from giving any competitor of
 Gaussian, Inc. access to this program.  By using this program,
 the user acknowledges that Gaussian, Inc. is engaged in the
 business of creating and licensing software in the field of
 computational chemistry and represents and warrants to the
 licensee that it is not a competitor of Gaussian, Inc. and that
 it will not use this program in any manner prohibited above.
 ---------------------------------------------------------------
  

 Cite this work as:
 Gaussian 09, Revision D.01,
 M. J. Frisch, G. W. Trucks, H. B. Schlegel, G. E. Scuseria, 
 M. A. Robb, J. R. Cheeseman, G. Scalmani, V. Barone, B. Mennucci, 
 G. A. Petersson, H. Nakatsuji, M. Caricato, X. Li, H. P. Hratchian, 
 A. F. Izmaylov, J. Bloino, G. Zheng, J. L. Sonnenberg, M. Hada, 
 M. Ehara, K. Toyota, R. Fukuda, J. Hasegawa, M. Ishida, T. Nakajima, 
 Y. Honda, O. Kitao, H. Nakai, T. Vreven, J. A. Montgomery, Jr., 
 J. E. Peralta, F. Ogliaro, M. Bearpark, J. J. Heyd, E. Brothers, 
 K. N. Kudin, V. N. Staroverov, T. Keith, R. Kobayashi, J. Normand, 
 K. Raghavachari, A. Rendell, J. C. Burant, S. S. Iyengar, J. Tomasi, 
 M. Cossi, N. Rega, J. M. Millam, M. Klene, J. E. Knox, J. B. Cross, 
 V. Bakken, C. Adamo, J. Jaramillo, R. Gomperts, R. E. Stratmann, 
 O. Yazyev, A. J. Austin, R. Cammi, C. Pomelli, J. W. Ochterski, 
 R. L. Martin, K. Morokuma, V. G. Zakrzewski, G. A. Voth, 
 P. Salvador, J. J. Dannenberg, S. Dapprich, A. D. Daniels, 
 O. Farkas, J. B. Foresman, J. V. Ortiz, J. Cioslowski, 
 and D. J. Fox, Gaussian, Inc., Wallingford CT, 2013.
 
 ******************************************
 Gaussian 09:  ES64L-G09RevD.01 24-Apr-2013
                 8-Jan-2021 
 ******************************************
 ----------------------------------------------------------------------
 #P b3lyp/3-21G scf=qc opt(calcall, ts, noeigentest, cartesian,maxcycle
 =100)
 ----------------------------------------------------------------------
 1/5=1,6=100,10=4,11=1,14=-1,18=10,26=3,38=1/1,3;
 2/12=2,17=6,18=5,29=2,40=1/2;
 3/5=5,11=2,16=1,25=1,30=1,71=2,74=-5,140=1/1,2,3;
 4//1;
 5/5=2,8=3,38=5/8;
 8/6=4,10=90,11=11/1;
 11/6=1,8=1,9=11,15=111,16=1/1,2,10;
 10/6=1/2;
 6/7=2,8=2,9=2,10=2,18=1,28=1/1;
 7/7=1,10=1,25=1/1,2,3,16;
 1/5=1,6=100,10=4,11=1,14=-1,18=10,26=3/3(3);
 2/29=1/2;
 7/7=1,8=1,9=1,25=1,44=-1/16;
 99/12=1/99;
 2/29=1/2;
 3/5=5,11=2,16=1,25=1,30=1,71=2,74=-5,140=1/1,2,3;
 4/5=5,16=3,69=1/1;
 5/5=2,8=3,38=5/8;
 8/6=4,10=90,11=11/1;
 11/6=1,8=1,9=11,15=111,16=1/1,2,10;
 10/6=1/2;
 7/7=1,10=1,25=1/1,2,3,16;
 1/5=1,6=100,10=4,11=1,14=-1,18=10,26=3/3(-8);
 2/29=1/2;
 6/7=2,8=2,9=2,10=2,18=1,19=2,28=1/1;
 7/7=1,8=1,9=1,25=1,44=-1/16;
 99/12=1/99;
 Leave Link    1 at Fri Jan  8 03:26:51 2021, MaxMem=           0 cpu:         0.0
 (Enter /apps/applications/gaussian/G09.D01/2/default/g09/l101.exe)
 ------------------------------
 Gaussian input prepared by ASE
 ------------------------------
 Symbolic Z-matrix:
 Charge =  0 Multiplicity = 2
 C                     0.78396  -0.79331  -0.54255 
 C                    -0.14947   0.33333  -0.59677 
 H                     1.74734  -0.52461  -0.9907 
 H                     0.38579  -1.6662   -1.07253 
 H                     0.93439  -1.03592   0.51364 
 C                    -0.92324   1.26189  -0.60709 
 H                    -1.588     2.08899  -0.63964 
 O                    -0.12374   0.29739   2.09975 
 H                    -1.06704   0.03846   1.8359 
 
 NAtoms=      9 NQM=        9 NQMF=       0 NMMI=      0 NMMIF=      0
                NMic=       0 NMicF=      0.
                    Isotopes and Nuclear Properties:
 (Nuclear quadrupole moments (NQMom) in fm**2, nuclear magnetic moments (NMagM)
  in nuclear magnetons)

  Atom         1           2           3           4           5           6           7           8           9
 IAtWgt=          12          12           1           1           1          12           1          16           1
 AtmWgt=  12.0000000  12.0000000   1.0078250   1.0078250   1.0078250  12.0000000   1.0078250  15.9949146   1.0078250
 NucSpn=           0           0           1           1           1           0           1           0           1
 AtZEff=   0.0000000   0.0000000   0.0000000   0.0000000   0.0000000   0.0000000   0.0000000   0.0000000   0.0000000
 NQMom=    0.0000000   0.0000000   0.0000000   0.0000000   0.0000000   0.0000000   0.0000000   0.0000000   0.0000000
 NMagM=    0.0000000   0.0000000   2.7928460   2.7928460   2.7928460   0.0000000   2.7928460   0.0000000   2.7928460
 AtZNuc=   6.0000000   6.0000000   1.0000000   1.0000000   1.0000000   6.0000000   1.0000000   8.0000000   1.0000000
 Leave Link  101 at Fri Jan  8 03:26:51 2021, MaxMem=    33554432 cpu:         0.0
 (Enter /apps/applications/gaussian/G09.D01/2/default/g09/l103.exe)

 GradGradGradGradGradGradGradGradGradGradGradGradGradGradGradGradGradGrad
 Berny optimization.
 Initialization pass.
 No Z-matrix variables, so optimization will use Cartesian coordinates.
 Trust Radius=3.00D-01 FncErr=1.00D-07 GrdErr=1.00D-06
 Number of steps in this run=    100 maximum allowed number of steps=    100.
 Search for a saddle point of order  1.
 GradGradGradGradGradGradGradGradGradGradGradGradGradGradGradGradGradGrad

 Leave Link  103 at Fri Jan  8 03:26:51 2021, MaxMem=    33554432 cpu:         0.0
 (Enter /apps/applications/gaussian/G09.D01/2/default/g09/l202.exe)
 ---------------------------------------------------------------------------------------------------
                            Z-MATRIX (ANGSTROMS AND DEGREES)
   CD    Cent   Atom    N1       Length/X        N2       Alpha/Y        N3        Beta/Z          J
 ---------------------------------------------------------------------------------------------------
      1      1  C        0   0.783964         -0.793311         -0.542546
      2      2  C        0  -0.149472          0.333326         -0.596771
      3      3  H        0   1.747343         -0.524609         -0.990703
      4      4  H        0   0.385787         -1.666199         -1.072534
      5      5  H        0   0.934387         -1.035925          0.513639
      6      6  C        0  -0.923235          1.261890         -0.607088
      7      7  H        0  -1.587997          2.088986         -0.639643
      8      8  O        0  -0.123737          0.297387          2.099748
      9      9  H        0  -1.067042          0.038455          1.835898
 ---------------------------------------------------------------------------------------------------
                         Z-Matrix orientation:                         
 ---------------------------------------------------------------------
 Center     Atomic      Atomic             Coordinates (Angstroms)
 Number     Number       Type             X           Y           Z
 ---------------------------------------------------------------------
      1          6           0        0.783964   -0.793311   -0.542546
      2          6           0       -0.149472    0.333326   -0.596771
      3          1           0        1.747343   -0.524609   -0.990703
      4          1           0        0.385787   -1.666199   -1.072534
      5          1           0        0.934387   -1.035925    0.513639
      6          6           0       -0.923235    1.261890   -0.607088
      7          1           0       -1.587997    2.088986   -0.639643
      8          8           0       -0.123737    0.297387    2.099748
      9          1           0       -1.067042    0.038455    1.835898
 ---------------------------------------------------------------------
                    Distance matrix (angstroms):
                    1          2          3          4          5
     1  C    0.000000
     2  C    1.464088   0.000000
     3  H    1.095967   2.118760   0.000000
     4  H    1.096068   2.123900   1.778696   0.000000
     5  H    1.094082   2.069447   1.784765   1.792806   0.000000
     6  C    2.672554   1.208738   3.235850   3.240970   3.160181
     7  H    3.734068   2.270140   4.251895   4.264344   4.178223
     8  O    2.999210   2.696881   3.705065   3.765456   2.326605
     9  H    3.126508   2.616632   4.028334   3.670904   2.628380
                    6          7          8          9
     6  C    0.000000
     7  H    1.061629   0.000000
     8  O    2.982687   3.585826   0.000000
     9  H    2.735992   3.256436   1.013157   0.000000
 Stoichiometry    C3H5O(2)
 Framework group  C1[X(C3H5O)]
 Deg. of freedom    21
 Full point group                 C1      NOp   1
 Largest Abelian subgroup         C1      NOp   1
 Largest concise Abelian subgroup C1      NOp   1
                         Standard orientation:                         
 ---------------------------------------------------------------------
 Center     Atomic      Atomic             Coordinates (Angstroms)
 Number     Number       Type             X           Y           Z
 ---------------------------------------------------------------------
      1          6           0       -1.032081   -1.091620    0.009825
      2          6           0       -0.728812    0.340640   -0.004781
      3          1           0       -1.597889   -1.380446   -0.883252
      4          1           0       -1.617027   -1.365793    0.895281
      5          1           0       -0.075689   -1.622925    0.016469
      6          6           0       -0.444732    1.515480   -0.014593
      7          1           0       -0.218801    2.552449   -0.041188
      8          8           0        1.874397   -0.358585   -0.091709
      9          1           0        1.747982    0.098395    0.803654
 ---------------------------------------------------------------------
 Rotational constants (GHZ):      8.4188699      5.6783120      3.5016833
 Leave Link  202 at Fri Jan  8 03:26:51 2021, MaxMem=    33554432 cpu:         0.0
 (Enter /apps/applications/gaussian/G09.D01/2/default/g09/l301.exe)
 Standard basis: 3-21G (6D, 7F)
 Ernie: Thresh=  0.10000D-02 Tol=  0.10000D-05 Strict=F.
 There are    46 symmetry adapted cartesian basis functions of A   symmetry.
 There are    46 symmetry adapted basis functions of A   symmetry.
    46 basis functions,    75 primitive gaussians,    46 cartesian basis functions
    16 alpha electrons       15 beta electrons
       nuclear repulsion energy        98.4714729939 Hartrees.
 IExCor=  402 DFT=T Ex+Corr=B3LYP ExCW=0 ScaHFX=  0.200000
 ScaDFX=  0.800000  0.720000  1.000000  0.810000 ScalE2=  1.000000  1.000000
 IRadAn=      0 IRanWt=     -1 IRanGd=            0 ICorTp=0 IEmpDi=  4
 NAtoms=    9 NActive=    9 NUniq=    9 SFac= 1.00D+00 NAtFMM=   60 NAOKFM=F Big=F
 Integral buffers will be    131072 words long.
 Raffenetti 2 integral format.
 Two-electron integral symmetry is turned on.
 Leave Link  301 at Fri Jan  8 03:26:51 2021, MaxMem=    33554432 cpu:         0.0
 (Enter /apps/applications/gaussian/G09.D01/2/default/g09/l302.exe)
 NPDir=0 NMtPBC=     1 NCelOv=     1 NCel=       1 NClECP=     1 NCelD=      1
         NCelK=      1 NCelE2=     1 NClLst=     1 CellRange=     0.0.
 One-electron integrals computed using PRISM.
 NBasis=    46 RedAO= T EigKep=  1.31D-03  NBF=    46
 NBsUse=    46 1.00D-06 EigRej= -1.00D+00 NBFU=    46
 Precomputing XC quadrature grid using
 IXCGrd= 4 IRadAn=           0 IRanWt=          -1 IRanGd=           0 AccXCQ= 0.00D+00.
 Generated NRdTot=       0 NPtTot=           0 NUsed=           0 NTot=          32
 NSgBfM=    46    46    46    46    46 MxSgAt=     9 MxSgA2=     9.
 Leave Link  302 at Fri Jan  8 03:26:51 2021, MaxMem=    33554432 cpu:         0.1
 (Enter /apps/applications/gaussian/G09.D01/2/default/g09/l303.exe)
 DipDrv:  MaxL=1.
 Leave Link  303 at Fri Jan  8 03:26:51 2021, MaxMem=    33554432 cpu:         0.0
 (Enter /apps/applications/gaussian/G09.D01/2/default/g09/l401.exe)
 ExpMin= 1.83D-01 ExpMax= 3.22D+02 ExpMxC= 3.22D+02 IAcc=1 IRadAn=         1 AccDes= 0.00D+00
 Harris functional with IExCor=  402 and IRadAn=       1 diagonalized for initial guess.
 HarFok:  IExCor=  402 AccDes= 0.00D+00 IRadAn=         1 IDoV= 1 UseB2=F ITyADJ=14
 ICtDFT=  3500011 ScaDFX=  1.000000  1.000000  1.000000  1.000000
 FoFCou: FMM=F IPFlag=           0 FMFlag=      100000 FMFlg1=           0
         NFxFlg=           0 DoJE=T BraDBF=F KetDBF=T FulRan=T
         wScrn=  0.000000 ICntrl=     500 IOpCl=  0 I1Cent=   200000004 NGrid=           0
         NMat0=    1 NMatS0=      1 NMatT0=    0 NMatD0=    1 NMtDS0=    0 NMtDT0=    0
 Petite list used in FoFCou.
 Harris En= -191.327912501890    
 JPrj=0 DoOrth=F DoCkMO=F.
 Initial guess <Sx>= 0.0000 <Sy>= 0.0000 <Sz>= 0.5000 <S**2>= 0.7500 S= 0.5000
 Leave Link  401 at Fri Jan  8 03:26:51 2021, MaxMem=    33554432 cpu:         0.2
 (Enter /apps/applications/gaussian/G09.D01/2/default/g09/l508.exe)
 Direct SCF.
 Tight linear equation convergence will be used.
 UB3LYP wavefunction.
 Quadratic Convergence SCF Method.
 Line search only if initial step raises energy.
 Integral symmetry usage will be decided dynamically.
 ReadGW:  IGet=1 IStart=         402 Next=         402 LGW=           0.
 Keep R1 and R2 ints in memory in canonical form, NReq=2054798.
 FoFCou: FMM=F IPFlag=           0 FMFlag=           0 FMFlg1=           0
         NFxFlg=           0 DoJE=F BraDBF=F KetDBF=F FulRan=T
         wScrn=  0.000000 ICntrl=     600 IOpCl=  0 I1Cent=           0 NGrid=           0
         NMat0=    1 NMatS0=   1081 NMatT0=    0 NMatD0=    1 NMtDS0=    0 NMtDT0=    0
 Symmetry not used in FoFCou.
 Iteration   1 EE= -191.235639962999                                    Grad=4.212D-01 Max rot=    3.7933 deg.
 Gradient too large for Newton-Raphson -- use scaled steepest descent instead.
 Alpha Gap=     0.301 HL deriv= 8.55D-04
  Beta Gap=     0.124 HL deriv= 4.60D-03
     ILin= 1 X=0.000D+00 Y=-1.912356399630D+02 DE= 0.00D+00 F= -3.65D-01
     ILin= 2 X=3.000D-01 Y=-1.913115069921D+02 DE=-7.59D-02 F= -1.41D-01
     ILin= 3 X=4.000D-01 Y=-1.913218592649D+02 DE=-8.62D-02 F= -6.64D-02
     ILin= 4 X=6.000D-01 Y=-1.913204325619D+02 DE=-8.48D-02 F=  8.03D-02
     An  expanding polynomial of degree  4 produced  0.4902
 Iteration   2 EE= -191.324849541680     Delta-E=       -0.089209578682 Grad=1.202D-01 Max rot=    1.5792 deg.
 Gradient too large for Newton-Raphson -- use scaled steepest descent instead.
 Alpha Gap=     0.398 HL deriv= 5.72D-04
  Beta Gap=     0.149 HL deriv= 2.84D-04
     ILin= 1 X=0.000D+00 Y=-1.913248495417D+02 DE= 0.00D+00 F= -1.96D-02
     ILin= 2 X=4.000D-01 Y=-1.913302129451D+02 DE=-5.36D-03 F= -7.21D-03
     ILin= 3 X=7.000D-01 Y=-1.913309764928D+02 DE=-6.13D-03 F=  2.13D-03
     Accept linear search using points  2 and  3.
     An  expanding polynomial of degree  3 produced  0.5455
 Iteration   3 EE= -191.330932971813     Delta-E=       -0.006083430133 Grad=3.759D-02 Max rot=    0.7583 deg.
 Gradient too large for Newton-Raphson -- use scaled steepest descent instead.
 Alpha Gap=     0.373 HL deriv= 3.41D-04
  Beta Gap=     0.149 HL deriv= 2.78D-03
     ILin= 1 X=0.000D+00 Y=-1.913309329718D+02 DE= 0.00D+00 F= -3.52D-03
     ILin= 2 X=5.000D-01 Y=-1.913321206920D+02 DE=-1.19D-03 F= -1.25D-03
     ILin= 3 X=9.000D-01 Y=-1.913322761159D+02 DE=-1.34D-03 F=  4.65D-04
     Accept linear search using points  2 and  3.
     An  expanding polynomial of degree  3 produced  0.7090
 Iteration   4 EE= -191.332287674521     Delta-E=       -0.001354702708 Grad=2.428D-02 Max rot=    0.3139 deg.
 Gradient too large for Newton-Raphson -- use scaled steepest descent instead.
 Alpha Gap=     0.391 HL deriv= 7.16D-04
  Beta Gap=     0.154 HL deriv= 1.04D-03
     ILin= 1 X=0.000D+00 Y=-1.913322876745D+02 DE= 0.00D+00 F= -1.28D-03
     ILin= 2 X=6.000D-01 Y=-1.913325478205D+02 DE=-2.60D-04 F=  4.11D-04
     Accept linear search using points  1 and  2.
     An  expanding polynomial of degree  2 produced  0.3686
 Iteration   5 EE= -191.332567582671     Delta-E=       -0.000279908150 Grad=1.095D-02 Max rot=    0.1813 deg.
 Gradient too large for Newton-Raphson -- use scaled steepest descent instead.
 Alpha Gap=     0.388 HL deriv= 2.13D-04
  Beta Gap=     0.154 HL deriv= 1.49D-03
     ILin= 1 X=0.000D+00 Y=-1.913325675827D+02 DE= 0.00D+00 F= -3.06D-04
     ILin= 2 X=5.000D-01 Y=-1.913326757938D+02 DE=-1.08D-04 F= -1.27D-04
     ILin= 3 X=1.000D+00 Y=-1.913326943547D+02 DE=-1.27D-04 F=  5.29D-05
     Accept linear search using points  2 and  3.
     An  expanding polynomial of degree  3 produced  0.7778
 Iteration   6 EE= -191.332697213012     Delta-E=       -0.000129630341 Grad=7.305D-03 Max rot=    0.1113 deg.
 QCNR:  CnvC1=3.07D-09 CnvC2=3.07D-08
 LinEq1:  Iter=  0 NonCon=     1 RMS=5.55D-04 Max=9.00D-03 NDo=     1
 AX will form     1 AO Fock derivatives at one time.
 LinEq1:  Iter=  1 NonCon=     1 RMS=6.83D-04 Max=9.89D-03 NDo=     1
 LinEq1:  Iter=  2 NonCon=     1 RMS=1.52D-04 Max=2.88D-03 NDo=     1
 LinEq1:  Iter=  3 NonCon=     1 RMS=1.36D-04 Max=2.69D-03 NDo=     1
 LinEq1:  Iter=  4 NonCon=     1 RMS=4.84D-05 Max=5.89D-04 NDo=     1
 LinEq1:  Iter=  5 NonCon=     1 RMS=1.65D-05 Max=1.21D-04 NDo=     1
 LinEq1:  Iter=  6 NonCon=     1 RMS=1.07D-05 Max=8.03D-05 NDo=     1
 LinEq1:  Iter=  7 NonCon=     1 RMS=2.91D-06 Max=2.54D-05 NDo=     1
 LinEq1:  Iter=  8 NonCon=     1 RMS=1.66D-06 Max=1.30D-05 NDo=     1
 LinEq1:  Iter=  9 NonCon=     1 RMS=6.25D-07 Max=4.68D-06 NDo=     1
 LinEq1:  Iter= 10 NonCon=     1 RMS=1.33D-07 Max=1.06D-06 NDo=     1
 LinEq1:  Iter= 11 NonCon=     1 RMS=2.99D-08 Max=2.45D-07 NDo=     1
 LinEq1:  Iter= 12 NonCon=     1 RMS=7.66D-09 Max=6.66D-08 NDo=     1
 LinEq1:  Iter= 13 NonCon=     0 RMS=1.74D-09 Max=1.02D-08 NDo=     1
 Linear equations converged to 3.074D-09 3.074D-08 after    13 iterations.
 Angle between quadratic step and gradient=  71.27 degrees.
     ILin= 1 X=0.000D+00 Y=-1.913326972130D+02 DE= 0.00D+00 F= -1.21D-04
     ILin= 2 X=1.000D+00 Y=-1.913327580115D+02 DE=-6.08D-05 F= -3.18D-07
     Reject lnstep minimum 1.003D+00 FVal=-1.913327580119D+02 Lims=  0.00D+00  1.00D+00
     ILin= 3 X=2.000D+00 Y=-1.913326980822D+02 DE=-8.69D-07 F=  1.20D-04
     An  expanding polynomial of degree  3 produced  1.0036
     Minimum is close to point  2 DX=  3.60D-03 DF= -7.82D-10 DXR=  3.59D-03 DFR=  1.29D-05 which will be used.
 Iteration   7 EE= -191.332758011499     Delta-E=       -0.000060798486 Grad=8.068D-05 Max rot=    0.0011 deg.
 QCNR:  CnvC1=8.07D-10 CnvC2=8.07D-09
 LinEq1:  Iter=  0 NonCon=     1 RMS=5.43D-06 Max=1.21D-04 NDo=     1
 LinEq1:  Iter=  1 NonCon=     1 RMS=2.15D-06 Max=2.14D-05 NDo=     1
 LinEq1:  Iter=  2 NonCon=     1 RMS=8.35D-07 Max=1.30D-05 NDo=     1
 LinEq1:  Iter=  3 NonCon=     1 RMS=1.17D-06 Max=2.09D-05 NDo=     1
 LinEq1:  Iter=  4 NonCon=     1 RMS=8.21D-07 Max=1.16D-05 NDo=     1
 LinEq1:  Iter=  5 NonCon=     1 RMS=4.57D-07 Max=4.31D-06 NDo=     1
 LinEq1:  Iter=  6 NonCon=     1 RMS=1.90D-07 Max=2.04D-06 NDo=     1
 LinEq1:  Iter=  7 NonCon=     1 RMS=6.66D-08 Max=4.72D-07 NDo=     1
 LinEq1:  Iter=  8 NonCon=     1 RMS=3.57D-08 Max=2.94D-07 NDo=     1
 LinEq1:  Iter=  9 NonCon=     1 RMS=1.58D-08 Max=1.91D-07 NDo=     1
 LinEq1:  Iter= 10 NonCon=     1 RMS=4.33D-09 Max=3.85D-08 NDo=     1
 LinEq1:  Iter= 11 NonCon=     0 RMS=7.01D-10 Max=5.79D-09 NDo=     1
 Linear equations converged to 8.068D-10 8.068D-09 after    11 iterations.
 Angle between quadratic step and gradient=  68.49 degrees.
     ILin= 1 X=0.000D+00 Y=-1.913327580115D+02 DE= 0.00D+00 F= -1.10D-08
     ILin= 2 X=1.000D+00 Y=-1.913327580170D+02 DE=-5.48D-09
 Iteration   8 EE= -191.332758016976     Delta-E=       -0.000000005478 Grad=7.786D-08 Max rot=    0.0000 deg.
 Rotation gradient small -- convergence achieved.
 SCF Done:  E(UB3LYP) =  -191.332758017     a.u. after    8 cycles
            Convg  =    0.7786D-07                    43 Fock formations.
              S**2 =  0.7516                  -V/T =  2.0088
 <Sx>= 0.0000 <Sy>= 0.0000 <Sz>= 0.5000 <S**2>= 0.7516 S= 0.5008
 <L.S>= 0.000000000000E+00
 Annihilation of the first spin contaminant:
 S**2 before annihilation     0.7516,   after     0.7500
 Leave Link  508 at Fri Jan  8 03:27:20 2021, MaxMem=    33554432 cpu:        28.6
 (Enter /apps/applications/gaussian/G09.D01/2/default/g09/l801.exe)
 DoSCS=F DFT=T ScalE2(SS,OS)=  1.000000  1.000000
 Range of M.O.s used for correlation:     1    46
 NBasis=    46 NAE=    16 NBE=    15 NFC=     0 NFV=     0
 NROrb=     46 NOA=    16 NOB=    15 NVA=    30 NVB=    31

 **** Warning!!: The largest alpha MO coefficient is  0.10656540D+02


 **** Warning!!: The largest beta MO coefficient is  0.10644401D+02

 Leave Link  801 at Fri Jan  8 03:27:20 2021, MaxMem=    33554432 cpu:         0.0
 (Enter /apps/applications/gaussian/G09.D01/2/default/g09/l1101.exe)
 Using compressed storage, NAtomX=     9.
 Will process     10 centers per pass.
 Leave Link 1101 at Fri Jan  8 03:27:20 2021, MaxMem=    33554432 cpu:         0.1
 (Enter /apps/applications/gaussian/G09.D01/2/default/g09/l1102.exe)
 Symmetrizing basis deriv contribution to polar:
 IMax=3 JMax=2 DiffMx= 0.00D+00
 Leave Link 1102 at Fri Jan  8 03:27:20 2021, MaxMem=    33554432 cpu:         0.0
 (Enter /apps/applications/gaussian/G09.D01/2/default/g09/l1110.exe)
 Forming Gx(P) for the SCF density, NAtomX=     9.
 Integral derivatives from FoFJK, PRISM(SPDF).
 Do as many integral derivatives as possible in FoFJK.
 G2DrvN: MDV=      33554256.
 G2DrvN: will do    10 centers at a time, making    1 passes.
 Calling FoFCou, ICntrl=  3107 FMM=F I1Cent=   0 AccDes= 0.00D+00.
 FoFJK:  IHMeth= 1 ICntrl=    3107 DoSepK=F KAlg= 0 I1Cent=   0 FoldK=F
 IRaf=         0 NMat=   1 IRICut=       1 DoRegI=T DoRafI=F ISym2E= 0.
 FoFCou: FMM=F IPFlag=           0 FMFlag=      100000 FMFlg1=           0
         NFxFlg=           0 DoJE=F BraDBF=F KetDBF=F FulRan=T
         wScrn=  0.000000 ICntrl=    3107 IOpCl=  1 I1Cent=           0 NGrid=           0
         NMat0=    1 NMatS0=      1 NMatT0=    0 NMatD0=    1 NMtDS0=    0 NMtDT0=    0
 Symmetry not used in FoFCou.
 End of G2Drv F.D. properties file   721 does not exist.
 End of G2Drv F.D. properties file   722 does not exist.
 End of G2Drv F.D. properties file   788 does not exist.
 Leave Link 1110 at Fri Jan  8 03:27:30 2021, MaxMem=    33554432 cpu:        10.0
 (Enter /apps/applications/gaussian/G09.D01/2/default/g09/l1002.exe)
 Minotr:  UHF open shell wavefunction.
          IDoAtm=111111111
          Direct CPHF calculation.
          Differentiating once with respect to electric field.
                with respect to dipole field.
          Differentiating once with respect to nuclear coordinates.
          Requested convergence is 1.0D-08 RMS, and 1.0D-07 maximum.
          Secondary convergence is 1.0D-12 RMS, and 1.0D-12 maximum.
          NewPWx=T KeepS1=F KeepF1=F KeepIn=T MapXYZ=F SortEE=F KeepMc=T.
          MDV=      33554246 using IRadAn=       2.
 Generate precomputed XC quadrature information.
 Keep R1 and R2 ints in memory in canonical form, NReq=2035813.
 FoFCou: FMM=F IPFlag=           0 FMFlag=           0 FMFlg1=           0
         NFxFlg=           0 DoJE=F BraDBF=F KetDBF=F FulRan=T
         wScrn=  0.000000 ICntrl=     600 IOpCl=  0 I1Cent=           0 NGrid=           0
         NMat0=    1 NMatS0=   1081 NMatT0=    0 NMatD0=    1 NMtDS0=    0 NMtDT0=    0
 Symmetry not used in FoFCou.
          Solving linear equations simultaneously, MaxMat=       0.
          There are    30 degrees of freedom in the 1st order CPHF.  IDoFFX=6 NUNeed=     3.
     27 vectors produced by pass  0 Test12= 3.15D-15 3.33D-09 XBig12= 9.62D+01 4.13D+00.
 AX will form    27 AO Fock derivatives at one time.
     27 vectors produced by pass  1 Test12= 3.15D-15 3.33D-09 XBig12= 1.55D+01 7.79D-01.
     27 vectors produced by pass  2 Test12= 3.15D-15 3.33D-09 XBig12= 1.57D-01 6.96D-02.
     27 vectors produced by pass  3 Test12= 3.15D-15 3.33D-09 XBig12= 2.03D-04 2.73D-03.
     27 vectors produced by pass  4 Test12= 3.15D-15 3.33D-09 XBig12= 2.75D-07 1.03D-04.
     22 vectors produced by pass  5 Test12= 3.15D-15 3.33D-09 XBig12= 7.55D-10 4.64D-06.
      6 vectors produced by pass  6 Test12= 3.15D-15 3.33D-09 XBig12= 1.51D-12 1.86D-07.
      2 vectors produced by pass  7 Test12= 3.15D-15 3.33D-09 XBig12= 3.06D-15 7.27D-09.
 InvSVY:  IOpt=1 It=  1 EMax= 3.55D-15
 Solved reduced A of dimension   165 with    30 vectors.
 FullF1:  Do perturbations    1 to     3.
 Isotropic polarizability for W=    0.000000       31.03 Bohr**3.
 End of Minotr F.D. properties file   721 does not exist.
 End of Minotr F.D. properties file   722 does not exist.
 End of Minotr F.D. properties file   788 does not exist.
 Leave Link 1002 at Fri Jan  8 03:27:39 2021, MaxMem=    33554432 cpu:         8.6
 (Enter /apps/applications/gaussian/G09.D01/2/default/g09/l601.exe)
 Copying SCF densities to generalized density rwf, IOpCl= 1 IROHF=0.

 **********************************************************************

            Population analysis using the SCF density.

 **********************************************************************

 Orbital symmetries:
 Alpha Orbitals:
       Occupied  (A) (A) (A) (A) (A) (A) (A) (A) (A) (A) (A) (A)
                 (A) (A) (A) (A)
       Virtual   (A) (A) (A) (A) (A) (A) (A) (A) (A) (A) (A) (A)
                 (A) (A) (A) (A) (A) (A) (A) (A) (A) (A) (A) (A)
                 (A) (A) (A) (A) (A) (A)
 Beta  Orbitals:
       Occupied  (A) (A) (A) (A) (A) (A) (A) (A) (A) (A) (A) (A)
                 (A) (A) (A)
       Virtual   (A) (A) (A) (A) (A) (A) (A) (A) (A) (A) (A) (A)
                 (A) (A) (A) (A) (A) (A) (A) (A) (A) (A) (A) (A)
                 (A) (A) (A) (A) (A) (A) (A)
 The electronic state is 2-A.
 Alpha  occ. eigenvalues --  -19.06020 -10.13740 -10.13635 -10.12060  -0.96856
 Alpha  occ. eigenvalues --   -0.78287  -0.70933  -0.53384  -0.45580  -0.43369
 Alpha  occ. eigenvalues --   -0.43141  -0.42020  -0.36073  -0.28584  -0.27523
 Alpha  occ. eigenvalues --   -0.26951
 Alpha virt. eigenvalues --    0.05720   0.05943   0.10847   0.13672   0.15717
 Alpha virt. eigenvalues --    0.20127   0.22147   0.25066   0.48870   0.67915
 Alpha virt. eigenvalues --    0.70121   0.70776   0.78689   0.79020   0.89404
 Alpha virt. eigenvalues --    0.89903   0.94009   0.99178   1.03709   1.04268
 Alpha virt. eigenvalues --    1.05333   1.12491   1.22819   1.36986   1.45373
 Alpha virt. eigenvalues --    1.54183   1.56258   2.03088   2.07096   2.52904
  Beta  occ. eigenvalues --  -19.03714 -10.13725 -10.13626 -10.11983  -0.90185
  Beta  occ. eigenvalues --   -0.78164  -0.70821  -0.53312  -0.45541  -0.43161
  Beta  occ. eigenvalues --   -0.43071  -0.39433  -0.27558  -0.27416  -0.25825
  Beta virt. eigenvalues --   -0.10678   0.05803   0.06194   0.11821   0.13757
  Beta virt. eigenvalues --    0.15835   0.20129   0.22263   0.25106   0.48922
  Beta virt. eigenvalues --    0.68011   0.70162   0.71254   0.78825   0.79148
  Beta virt. eigenvalues --    0.89553   0.90019   0.94096   0.99507   1.03752
  Beta virt. eigenvalues --    1.04326   1.05423   1.13168   1.23006   1.38804
  Beta virt. eigenvalues --    1.49503   1.58364   1.60097   2.03234   2.07137
  Beta virt. eigenvalues --    2.58000
          Condensed to atoms (all electrons):
               1          2          3          4          5          6
     1  C    5.430066   0.246549   0.367272   0.364587   0.324218  -0.047761
     2  C    0.246549   4.825505  -0.048230  -0.049261  -0.049928   0.982096
     3  H    0.367272  -0.048230   0.495901  -0.025255  -0.018756  -0.002462
     4  H    0.364587  -0.049261  -0.025255   0.509706  -0.019512  -0.002453
     5  H    0.324218  -0.049928  -0.018756  -0.019512   0.490986  -0.004405
     6  C   -0.047761   0.982096  -0.002462  -0.002453  -0.004405   5.079427
     7  H    0.000892  -0.021360  -0.000022  -0.000021  -0.000029   0.371882
     8  O   -0.013906   0.010108   0.000159   0.000170   0.032865  -0.000424
     9  H    0.001865  -0.000306   0.000033  -0.000097  -0.003916   0.004109
               7          8          9
     1  C    0.000892  -0.013906   0.001865
     2  C   -0.021360   0.010108  -0.000306
     3  H   -0.000022   0.000159   0.000033
     4  H   -0.000021   0.000170  -0.000097
     5  H   -0.000029   0.032865  -0.003916
     6  C    0.371882  -0.000424   0.004109
     7  H    0.405561   0.000045   0.000068
     8  O    0.000045   8.110103   0.192109
     9  H    0.000068   0.192109   0.470890
          Atomic-Atomic Spin Densities.
               1          2          3          4          5          6
     1  C   -0.007512   0.001194   0.000585   0.000641   0.004864  -0.000349
     2  C    0.001194  -0.003920   0.000135   0.000272  -0.000032   0.003292
     3  H    0.000585   0.000135  -0.000628  -0.000113  -0.000315   0.000018
     4  H    0.000641   0.000272  -0.000113  -0.001262  -0.000182   0.000034
     5  H    0.004864  -0.000032  -0.000315  -0.000182  -0.005049   0.000156
     6  C   -0.000349   0.003292   0.000018   0.000034   0.000156   0.045879
     7  H   -0.000007  -0.000146   0.000000   0.000000   0.000001  -0.000191
     8  O    0.000603  -0.005545  -0.000019  -0.000007  -0.002267  -0.004110
     9  H   -0.000123   0.000805   0.000000   0.000004   0.000292   0.000471
               7          8          9
     1  C   -0.000007   0.000603  -0.000123
     2  C   -0.000146  -0.005545   0.000805
     3  H    0.000000  -0.000019   0.000000
     4  H    0.000000  -0.000007   0.000004
     5  H    0.000001  -0.002267   0.000292
     6  C   -0.000191  -0.004110   0.000471
     7  H   -0.001867   0.000022  -0.000003
     8  O    0.000022   1.018064  -0.005133
     9  H   -0.000003  -0.005133  -0.033397
 Mulliken charges and spin densities:
               1          2
     1  C   -0.673782  -0.000104
     2  C    0.104826  -0.003945
     3  H    0.231359  -0.000338
     4  H    0.222135  -0.000612
     5  H    0.248476  -0.002532
     6  C   -0.380010   0.045200
     7  H    0.242982  -0.002191
     8  O   -0.331229   1.001607
     9  H    0.335243  -0.037084
 Sum of Mulliken charges =   0.00000   1.00000
 Mulliken charges and spin densities with hydrogens summed into heavy atoms:
               1          2
     1  C    0.028188  -0.003586
     2  C    0.104826  -0.003945
     6  C   -0.137028   0.043009
     8  O    0.004015   0.964523
 APT charges:
               1
     1  C    0.019215
     2  C   -0.022987
     3  H    0.026128
     4  H    0.017991
     5  H    0.083721
     6  C   -0.368501
     7  H    0.220576
     8  O   -0.170283
     9  H    0.194140
 Sum of APT charges =   0.00000
 APT charges with hydrogens summed into heavy atoms:
               1
     1  C    0.147055
     2  C   -0.022987
     6  C   -0.147925
     8  O    0.023857
 Electronic spatial extent (au):  <R**2>=            355.3003
 Charge=              0.0000 electrons
 Dipole moment (field-independent basis, Debye):
    X=             -0.4699    Y=              0.1618    Z=              1.4834  Tot=              1.5645
 Quadrupole moment (field-independent basis, Debye-Ang):
   XX=            -25.4268   YY=            -20.0607   ZZ=            -23.9778
   XY=              2.7520   XZ=              3.1083   YZ=             -0.0946
 Traceless Quadrupole moment (field-independent basis, Debye-Ang):
   XX=             -2.2717   YY=              3.0944   ZZ=             -0.8227
   XY=              2.7520   XZ=              3.1083   YZ=             -0.0946
 Octapole moment (field-independent basis, Debye-Ang**2):
  XXX=              8.8882  YYY=              8.0872  ZZZ=              1.0570  XYY=              2.9768
  XXY=             -3.3638  XXZ=              5.8549  XZZ=              4.7991  YZZ=             -2.9738
  YYZ=             -0.2957  XYZ=             -0.1303
 Hexadecapole moment (field-independent basis, Debye-Ang**3):
 XXXX=           -224.3531 YYYY=           -153.3288 ZZZZ=            -30.6524 XXXY=              4.5517
 XXXZ=             11.8686 YYYX=             -0.8342 YYYZ=             -0.6479 ZZZX=              2.1635
 ZZZY=              0.4192 XXYY=            -68.7393 XXZZ=            -36.7361 YYZZ=            -38.1030
 XXYZ=             -0.0754 YYXZ=              0.5544 ZZXY=              2.2557
 N-N= 9.847147299390D+01 E-N=-6.435929227808D+02  KE= 1.896617790898D+02
  Exact polarizability:  29.113   2.524  44.063   0.566   1.042  19.903
 Approx polarizability:  35.101   6.241  71.712  -0.541   2.346  25.183
                          Isotropic Fermi Contact Couplings
        Atom                 a.u.       MegaHertz       Gauss      10(-4) cm-1
     1  C(13)             -0.00084      -0.94955      -0.33882      -0.31674
     2  C(13)              0.00112       1.26240       0.45045       0.42109
     3  H(1)              -0.00011      -0.49628      -0.17709      -0.16554
     4  H(1)              -0.00021      -0.92652      -0.33060      -0.30905
     5  H(1)              -0.00009      -0.41503      -0.14809      -0.13844
     6  C(13)              0.00595       6.68604       2.38575       2.23022
     7  H(1)              -0.00075      -3.35563      -1.19737      -1.11932
     8  O(17)              0.09780     -59.28828     -21.15553     -19.77644
     9  H(1)              -0.01425     -63.69383     -22.72754     -21.24597
 --------------------------------------------------------
       Center         ----  Spin Dipole Couplings  ----
                      3XX-RR        3YY-RR        3ZZ-RR
 --------------------------------------------------------
     1   Atom        0.007304     -0.002040     -0.005264
     2   Atom        0.034092     -0.011382     -0.022709
     3   Atom        0.004355     -0.001628     -0.002727
     4   Atom        0.003821     -0.001577     -0.002244
     5   Atom        0.009970      0.000611     -0.010580
     6   Atom        0.046783     -0.016631     -0.030152
     7   Atom       -0.001167      0.007768     -0.006602
     8   Atom        0.831868      0.080570     -0.912438
     9   Atom       -0.076490     -0.037993      0.114482
 --------------------------------------------------------
                        XY            XZ            YZ
 --------------------------------------------------------
     1   Atom        0.005549     -0.000928     -0.000450
     2   Atom       -0.008778     -0.006035      0.000852
     3   Atom        0.002595      0.001624      0.000700
     4   Atom        0.002241     -0.002028     -0.000870
     5   Atom        0.014558     -0.001504     -0.001581
     6   Atom       -0.033107     -0.010175      0.004078
     7   Atom       -0.003566     -0.000544      0.000252
     8   Atom       -2.059326      1.287846     -1.039010
     9   Atom       -0.038063     -0.009303      0.091426
 --------------------------------------------------------


 ---------------------------------------------------------------------------------
              Anisotropic Spin Dipole Couplings in Principal Axis System
 ---------------------------------------------------------------------------------

       Atom             a.u.   MegaHertz   Gauss  10(-4) cm-1        Axes

              Baa    -0.0053    -0.716    -0.255    -0.239  0.0513  0.0500  0.9974
     1 C(13)  Bbb    -0.0046    -0.620    -0.221    -0.207 -0.4233  0.9057 -0.0237
              Bcc     0.0100     1.336     0.477     0.446  0.9046  0.4210 -0.0676
 
              Baa    -0.0233    -3.133    -1.118    -1.045  0.1055  0.0066  0.9944
     2 C(13)  Bbb    -0.0130    -1.746    -0.623    -0.582  0.1800  0.9833 -0.0256
              Bcc     0.0364     4.878     1.741     1.627  0.9780 -0.1817 -0.1025
 
              Baa    -0.0031    -1.660    -0.592    -0.554 -0.1318 -0.2251  0.9654
     3 H(1)   Bbb    -0.0026    -1.378    -0.492    -0.460 -0.3786  0.9115  0.1609
              Bcc     0.0057     3.038     1.084     1.013  0.9161  0.3443  0.2053
 
              Baa    -0.0029    -1.557    -0.556    -0.519  0.1792  0.3069  0.9347
     4 H(1)   Bbb    -0.0024    -1.258    -0.449    -0.419 -0.3951  0.8926 -0.2173
              Bcc     0.0053     2.815     1.004     0.939  0.9010  0.3303 -0.2812
 
              Baa    -0.0109    -5.815    -2.075    -1.940 -0.1851  0.3598  0.9145
     5 H(1)   Bbb    -0.0098    -5.245    -1.872    -1.750 -0.5627  0.7241 -0.3988
              Bcc     0.0207    11.060     3.946     3.689  0.8057  0.5884 -0.0684
 
              Baa    -0.0315    -4.231    -1.510    -1.411  0.2220  0.2343  0.9465
     6 C(13)  Bbb    -0.0307    -4.118    -1.469    -1.374  0.3411  0.8907 -0.3005
              Bcc     0.0622     8.349     2.979     2.785  0.9134 -0.3896 -0.1178
 
              Baa    -0.0067    -3.552    -1.267    -1.185  0.1040  0.0084  0.9945
     7 H(1)   Bbb    -0.0024    -1.266    -0.452    -0.422  0.9378  0.3323 -0.1008
              Bcc     0.0090     4.817     1.719     1.607 -0.3313  0.9431  0.0267
 
              Baa    -1.6461   119.108    42.501    39.730  0.6980  0.6440 -0.3132
     8 O(17)  Bbb    -1.5670   113.387    40.459    37.822 -0.0540  0.4834  0.8737
              Bcc     3.2131  -232.496   -82.960   -77.552  0.7141 -0.5929  0.3722
 
              Baa    -0.1103   -58.859   -21.002   -19.633  0.6937  0.6767 -0.2465
     9 H(1)   Bbb    -0.0496   -26.446    -9.437    -8.822  0.7125 -0.5949  0.3720
              Bcc     0.1599    85.305    30.439    28.455 -0.1051  0.4337  0.8949
 

 ---------------------------------------------------------------------------------

 No NMR shielding tensors so no spin-rotation constants.
 Leave Link  601 at Fri Jan  8 03:27:39 2021, MaxMem=    33554432 cpu:         0.1
 (Enter /apps/applications/gaussian/G09.D01/2/default/g09/l701.exe)
 Compute integral second derivatives.
 ... and contract with generalized density number  0.
 Leave Link  701 at Fri Jan  8 03:27:39 2021, MaxMem=    33554432 cpu:         0.1
 (Enter /apps/applications/gaussian/G09.D01/2/default/g09/l702.exe)
 L702 exits ... SP integral derivatives will be done elsewhere.
 Leave Link  702 at Fri Jan  8 03:27:39 2021, MaxMem=    33554432 cpu:         0.0
 (Enter /apps/applications/gaussian/G09.D01/2/default/g09/l703.exe)
 Compute integral second derivatives, UseDBF=F ICtDFT=           0.
 Integral derivatives from FoFJK, PRISM(SPDF).
 Calling FoFJK, ICntrl=    100127 FMM=F ISym2X=0 I1Cent= 0 IOpClX= 1 NMat=1 NMatS=1 NMatT=0.
 FoFJK:  IHMeth= 1 ICntrl=  100127 DoSepK=F KAlg= 0 I1Cent=   0 FoldK=F
 IRaf=         0 NMat=   1 IRICut=       1 DoRegI=T DoRafI=F ISym2E= 0.
 FoFCou: FMM=F IPFlag=           0 FMFlag=      100000 FMFlg1=         800
         NFxFlg=           0 DoJE=F BraDBF=F KetDBF=F FulRan=T
         wScrn=  0.000000 ICntrl=  100127 IOpCl=  1 I1Cent=           0 NGrid=           0
         NMat0=    1 NMatS0=      1 NMatT0=    0 NMatD0=    1 NMtDS0=    0 NMtDT0=    0
 Symmetry not used in FoFCou.
 Leave Link  703 at Fri Jan  8 03:27:48 2021, MaxMem=    33554432 cpu:         8.6
 (Enter /apps/applications/gaussian/G09.D01/2/default/g09/l716.exe)
 Dipole        =-1.84863373D-01 6.36678325D-02 5.83633030D-01
 Polarizability= 2.91125343D+01 2.52401200D+00 4.40634561D+01
                 5.65692261D-01 1.04229860D+00 1.99026204D+01
 ***** Axes restored to original set *****
 -------------------------------------------------------------------
 Center     Atomic                   Forces (Hartrees/Bohr)
 Number     Number              X              Y              Z
 -------------------------------------------------------------------
      1        6           0.000003810   -0.000011120   -0.000008972
      2        6          -0.000007994    0.000021065    0.000023293
      3        1          -0.000008028   -0.000002314    0.000002561
      4        1          -0.000002535    0.000007077    0.000006287
      5        1           0.000016412   -0.000010066   -0.000003050
      6        6          -0.000000736   -0.000000364    0.000006545
      7        1          -0.000001254   -0.000000693   -0.000003860
      8        8          -0.000016780    0.000003963   -0.000022807
      9        1           0.000017106   -0.000007550    0.000000002
 -------------------------------------------------------------------
 Cartesian Forces:  Max     0.000023293 RMS     0.000010626
 Force constants in Cartesian coordinates: 
                1             2             3             4             5 
      1  0.517743D+00
      2  0.335089D-01  0.506562D+00
      3 -0.956776D-02  0.133494D-01  0.549435D+00
      4 -0.143654D+00  0.897177D-01 -0.288317D-02  0.641166D+00
      5  0.896320D-01 -0.179590D+00  0.320394D-02 -0.651812D+00  0.886826D+00
      6 -0.404271D-02  0.439426D-02 -0.646864D-01  0.101773D-01 -0.148778D-01
      7 -0.244975D+00 -0.594537D-01  0.938749D-01 -0.251511D-01  0.166179D-02
      8 -0.596218D-01 -0.643212D-01  0.285326D-01  0.317306D-01  0.442774D-02
      9  0.944046D-01  0.284611D-01 -0.903684D-01 -0.405389D-02 -0.291416D-02
     10 -0.837703D-01 -0.772182D-01 -0.484885D-01  0.771333D-02  0.244371D-01
     11 -0.771273D-01 -0.207712D+00 -0.993700D-01 -0.401205D-02 -0.293704D-01
     12 -0.485051D-01 -0.996092D-01 -0.108568D+00  0.407044D-02  0.359596D-02
     13 -0.527567D-01  0.424187D-02 -0.345767D-01 -0.869002D-02  0.106443D-01
     14  0.452910D-02 -0.595271D-01  0.557599D-01  0.906773D-02 -0.143746D-01
     15 -0.353918D-01  0.577129D-01 -0.293906D+00 -0.531366D-02  0.612662D-02
     16  0.351719D-02  0.316656D-02 -0.306797D-04 -0.475448D+00  0.527475D+00
     17  0.374271D-02  0.353117D-02  0.417982D-03  0.528516D+00 -0.674175D+00
     18  0.227885D-03  0.579716D-04  0.693003D-02 -0.943911D-02  0.113948D-01
     19  0.361376D-02  0.256382D-02 -0.163475D-03  0.505810D-02 -0.171102D-02
     20  0.249857D-02  0.248838D-02 -0.217388D-04 -0.328597D-02  0.698047D-02
     21 -0.379307D-03  0.275288D-03  0.517695D-02  0.142756D-02 -0.147609D-02
     22  0.165808D-03  0.259908D-02  0.127595D-02 -0.651868D-03 -0.934959D-03
     23  0.354571D-02 -0.137140D-02 -0.132950D-02  0.188466D-03 -0.920179D-03
     24  0.338380D-02 -0.407501D-02 -0.389071D-02  0.549232D-02 -0.625901D-02
     25  0.115293D-03  0.874042D-03  0.559426D-03 -0.342915D-03  0.607247D-03
     26 -0.707788D-03 -0.591972D-04 -0.542593D-03 -0.110529D-03  0.196367D-03
     27 -0.129608D-03 -0.566667D-03 -0.122761D-03  0.522199D-03  0.120573D-02
                6             7             8             9            10 
      6  0.959165D-01
      7  0.793503D-02  0.274034D+00
      8 -0.142746D-01  0.602091D-01  0.727815D-01
      9 -0.258074D-03 -0.104675D+00 -0.305194D-01  0.959988D-01
     10  0.147513D-01 -0.111636D-01 -0.243132D-01 -0.164464D-01  0.925817D-01
     11 -0.122355D-01 -0.369948D-02 -0.697874D-02 -0.395578D-02  0.805647D-01
     12  0.308468D-03  0.516625D-02  0.129181D-01  0.668666D-02  0.525316D-01
     13 -0.250968D-01  0.562264D-02 -0.732808D-02  0.307922D-01 -0.344773D-02
     14  0.300980D-01  0.113838D-02 -0.340358D-02  0.856283D-02 -0.352223D-02
     15 -0.216277D-04 -0.184230D-02  0.178380D-02 -0.115460D-01 -0.908922D-03
     16 -0.497960D-02  0.113037D-02  0.230148D-03 -0.832491D-04 -0.134904D-02
     17  0.576317D-02 -0.183482D-03 -0.182848D-02  0.115065D-02  0.532908D-03
     18 -0.348748D-01 -0.175100D-05  0.829036D-03  0.540624D-03 -0.108948D-02
     19 -0.101175D-03  0.490812D-03 -0.775020D-03  0.165701D-03 -0.614354D-03
     20  0.379305D-03  0.416763D-03 -0.619084D-03  0.130909D-03 -0.490358D-03
     21  0.320218D-02 -0.262947D-03  0.486638D-03  0.865987D-05 -0.450736D-03
     22  0.185381D-02 -0.250235D-04 -0.129968D-03  0.294760D-03 -0.158242D-04
     23  0.536622D-03 -0.164022D-03  0.138448D-03 -0.120375D-02 -0.142604D-03
     24  0.464048D-02 -0.811451D-04  0.110689D-03 -0.122953D-02  0.961538D-04
     25 -0.497270D-03  0.370636D-04 -0.172207D-05 -0.398732D-03  0.657288D-04
     26  0.216543D-03  0.746373D-04 -0.196621D-03  0.287648D-03  0.151907D-03
     27 -0.422678D-02 -0.113072D-03  0.133085D-03  0.167258D-03  0.499132D-05
               11            12            13            14            15 
     11  0.234440D+00
     12  0.111414D+00  0.115690D+00
     13  0.350815D-02 -0.127372D-01  0.613908D-01
     14  0.799605D-02 -0.277973D-01 -0.114300D-01  0.706012D-01
     15  0.329827D-02 -0.132251D-01  0.405793D-01 -0.652143D-01  0.323351D+00
     16  0.443925D-03 -0.130946D-02 -0.515454D-03  0.172550D-02  0.177627D-02
     17  0.114578D-02  0.285061D-03  0.164401D-02 -0.107869D-02 -0.210077D-02
     18  0.220832D-03  0.501334D-03  0.141464D-02 -0.153295D-02 -0.554750D-03
     19  0.583711D-03 -0.116737D-03 -0.656545D-04  0.712903D-04 -0.172724D-04
     20  0.450083D-03 -0.108004D-03  0.249521D-05  0.192313D-04  0.198755D-04
     21  0.408054D-03 -0.500782D-04  0.767153D-03 -0.820194D-03 -0.307512D-04
     22 -0.192845D-03  0.742666D-03 -0.431135D-03 -0.663870D-03  0.144090D-02
     23  0.165618D-03 -0.485268D-03 -0.234245D-02 -0.122144D-02 -0.218533D-02
     24  0.146363D-03 -0.132602D-02 -0.145166D-02  0.626671D-03 -0.437937D-02
     25 -0.688254D-04  0.157632D-03 -0.110679D-02 -0.915892D-03 -0.322558D-03
     26 -0.135720D-03 -0.213253D-03  0.105972D-02  0.989010D-03  0.558956D-03
     27  0.739446D-04 -0.179586D-04  0.309029D-03  0.317344D-03  0.312853D-03
               16            17            18            19            20 
     16  0.654697D+00
     17 -0.729396D+00  0.940691D+00
     18  0.163162D-01 -0.203934D-01  0.532269D-01
     19 -0.181831D+00  0.194947D+00 -0.723581D-02  0.173159D+00
     20  0.196408D+00 -0.267939D+00  0.908900D-02 -0.195636D+00  0.258739D+00
     21 -0.840489D-02  0.104818D-01 -0.242648D-01  0.736694D-02 -0.963568D-02
     22 -0.691201D-03  0.211750D-03  0.120525D-02  0.656394D-04  0.107286D-03
     23 -0.441803D-03  0.402765D-03  0.329974D-03  0.177192D-04  0.685694D-04
     24 -0.356764D-02  0.472346D-02 -0.249179D-03  0.168980D-03 -0.668215D-04
     25  0.490449D-03 -0.147287D-04 -0.139782D-02  0.123331D-03 -0.207931D-04
     26  0.388513D-03 -0.749351D-03  0.476148D-05 -0.616738D-04 -0.187696D-03
     27  0.283053D-03 -0.327994D-03 -0.125542D-02 -0.671530D-04  0.213164D-03
               21            22            23            24            25 
     21  0.158567D-01
     22 -0.501871D-04  0.342125D+00
     23 -0.377601D-03  0.913581D-01  0.299312D-01
     24  0.973923D-04  0.897761D-01  0.320282D-01  0.315909D-01
     25 -0.135830D-04 -0.340542D+00 -0.920191D-01 -0.938169D-01  0.341159D+00
     26  0.657738D-03 -0.923546D-01 -0.271936D-01 -0.272345D-01  0.915598D-01
     27  0.379361D-05 -0.965392D-01 -0.273133D-01 -0.252540D-01  0.957298D-01
               26            27 
     26  0.273368D-01
     27  0.262647D-01  0.303930D-01
 Leave Link  716 at Fri Jan  8 03:27:48 2021, MaxMem=    33554432 cpu:         0.0
 (Enter /apps/applications/gaussian/G09.D01/2/default/g09/l103.exe)

 GradGradGradGradGradGradGradGradGradGradGradGradGradGradGradGradGradGrad
 Berny optimization.
 Search for a saddle point.
 Step number   1 out of a maximum of  100
 All quantities printed in internal units (Hartrees-Bohrs-Radians)
 Swapping is turned off.
 Second derivative matrix not updated -- analytic derivatives used.
 ITU=  0
     Eigenvalues ---   -0.00305   0.00097   0.00326   0.00426   0.01293
     Eigenvalues ---    0.01385   0.01428   0.05715   0.05950   0.08921
     Eigenvalues ---    0.10853   0.11145   0.16025   0.16539   0.24027
     Eigenvalues ---    0.48290   0.65746   0.73010   0.75270   0.77614
     Eigenvalues ---    2.65321
 Eigenvectors required to have negative eigenvalues:
                          Z8        Z7        Y8        Z9        Z6
   1                    0.55421  -0.34928  -0.32019  -0.30858  -0.28115
                          Y9        X9        Z2        Y5        X8
   1                    0.24875   0.24171  -0.20490   0.19720   0.15993
 RFO step:  Lambda0=1.676958270D-07 Lambda=-1.69559205D-07.
 Linear search not attempted -- option 19 set.
 TrRot= -0.000066 -0.000042  0.000421  1.110365 -0.000293 -1.110413
 Variable       Old X    -DE/DX   Delta X   Delta X   Delta X     New X
                                 (Linear)    (Quad)   (Total)
    X1        1.48148   0.00000   0.00000  -0.00043  -0.00044   1.48104
    Y1       -1.49914  -0.00001   0.00000   0.00082   0.00097  -1.49817
    Z1       -1.02526  -0.00001   0.00000   0.00078   0.00100  -1.02427
    X2       -0.28246  -0.00001   0.00000  -0.00019  -0.00008  -0.28254
    Y2        0.62989   0.00002   0.00000   0.00104   0.00131   0.63120
    Z2       -1.12773   0.00002   0.00000  -0.00066  -0.00011  -1.12784
    X3        3.30200  -0.00001   0.00000  -0.00166  -0.00153   3.30047
    Y3       -0.99137   0.00000   0.00000  -0.00132  -0.00103  -0.99240
    Z3       -1.87216   0.00000   0.00000  -0.00306  -0.00247  -1.87463
    X4        0.72903   0.00000   0.00000  -0.00252  -0.00247   0.72656
    Y4       -3.14866   0.00001   0.00000  -0.00082  -0.00037  -3.14903
    Z4       -2.02680   0.00001   0.00000   0.00507   0.00476  -2.02204
    X5        1.76574   0.00002   0.00000   0.00248   0.00219   1.76793
    Y5       -1.95761  -0.00001   0.00000   0.00422   0.00384  -1.95378
    Z5        0.97064   0.00000   0.00000   0.00117   0.00131   0.97194
    X6       -1.74466   0.00000   0.00000  -0.00015   0.00005  -1.74461
    Y6        2.38463   0.00000   0.00000   0.00102   0.00136   2.38599
    Z6       -1.14723   0.00001   0.00000  -0.00203  -0.00121  -1.14844
    X7       -3.00088   0.00000   0.00000  -0.00014   0.00014  -3.00074
    Y7        3.94761   0.00000   0.00000   0.00098   0.00140   3.94901
    Z7       -1.20875   0.00000   0.00000  -0.00346  -0.00239  -1.21114
    X8       -0.23383  -0.00002   0.00000   0.00028  -0.00028  -0.23411
    Y8        0.56198   0.00000   0.00000  -0.00249  -0.00356   0.55842
    Z8        3.96795  -0.00002   0.00000   0.00358   0.00412   3.97207
    X9       -2.01642   0.00002   0.00000   0.00292   0.00240  -2.01402
    Y9        0.07267  -0.00001   0.00000  -0.00306  -0.00391   0.06876
    Z9        3.46934   0.00000   0.00000  -0.00518  -0.00500   3.46434
         Item               Value     Threshold  Converged?
 Maximum Force            0.000023     0.000450     YES
 RMS     Force            0.000011     0.000300     YES
 Maximum Displacement     0.005004     0.001800     NO 
 RMS     Displacement     0.002360     0.001200     NO 
 Predicted change in Energy=-5.034570D-09
 Lowest energy point so far.  Saving SCF results.
 GradGradGradGradGradGradGradGradGradGradGradGradGradGradGradGradGradGrad

 Leave Link  103 at Fri Jan  8 03:27:48 2021, MaxMem=    33554432 cpu:         0.0
 (Enter /apps/applications/gaussian/G09.D01/2/default/g09/l202.exe)
                          Input orientation:                          
 ---------------------------------------------------------------------
 Center     Atomic      Atomic             Coordinates (Angstroms)
 Number     Number       Type             X           Y           Z
 ---------------------------------------------------------------------
      1          6           0        0.783733   -0.792796   -0.542018
      2          6           0       -0.149512    0.334017   -0.596828
      3          1           0        1.746534   -0.525155   -0.992011
      4          1           0        0.384480   -1.666396   -1.070016
      5          1           0        0.935546   -1.033894    0.514331
      6          6           0       -0.923208    1.262612   -0.607729
      7          1           0       -1.587921    2.089725   -0.640908
      8          8           0       -0.123883    0.295501    2.101929
      9          1           0       -1.065771    0.036385    1.833250
 ---------------------------------------------------------------------
                    Distance matrix (angstroms):
                    1          2          3          4          5
     1  C    0.000000
     2  C    1.464124   0.000000
     3  H    1.095951   2.118805   0.000000
     4  H    1.096066   2.123842   1.778681   0.000000
     5  H    1.094097   2.069591   1.784819   1.792731   0.000000
     6  C    2.672577   1.208724   3.235940   3.240809   3.160368
     7  H    3.734093   2.270126   4.251995   4.264146   4.178452
     8  O    2.999769   2.699154   3.707344   3.764134   2.325973
     9  H    3.122516   2.614076   4.025728   3.664920   2.624941
                    6          7          8          9
     6  C    0.000000
     7  H    1.061631   0.000000
     8  O    2.986046   3.589680   0.000000
     9  H    2.735386   3.257347   1.013155   0.000000
 Stoichiometry    C3H5O(2)
 Framework group  C1[X(C3H5O)]
 Deg. of freedom    21
 Full point group                 C1      NOp   1
 RotChk:  IX=0 Diff= 7.20D-03
 Largest Abelian subgroup         C1      NOp   1
 Largest concise Abelian subgroup C1      NOp   1
                         Standard orientation:                         
 ---------------------------------------------------------------------
 Center     Atomic      Atomic             Coordinates (Angstroms)
 Number     Number       Type             X           Y           Z
 ---------------------------------------------------------------------
      1          6           0       -1.026347   -1.096280    0.009733
      2          6           0       -0.730912    0.337653   -0.004891
      3          1           0       -1.592942   -1.387738   -0.881968
      4          1           0       -1.607482   -1.373968    0.896600
      5          1           0       -0.067121   -1.622510    0.013763
      6          6           0       -0.453361    1.514039   -0.014588
      7          1           0       -0.233307    2.552276   -0.041053
      8          8           0        1.877540   -0.350754   -0.091512
      9          1           0        1.744253    0.105491    0.803227
 ---------------------------------------------------------------------
 Rotational constants (GHZ):      8.4175354      5.6713723      3.4987571
 Leave Link  202 at Fri Jan  8 03:27:48 2021, MaxMem=    33554432 cpu:         0.0
 (Enter /apps/applications/gaussian/G09.D01/2/default/g09/l301.exe)
 Standard basis: 3-21G (6D, 7F)
 Ernie: Thresh=  0.10000D-02 Tol=  0.10000D-05 Strict=F.
 There are    46 symmetry adapted cartesian basis functions of A   symmetry.
 There are    46 symmetry adapted basis functions of A   symmetry.
    46 basis functions,    75 primitive gaussians,    46 cartesian basis functions
    16 alpha electrons       15 beta electrons
       nuclear repulsion energy        98.4542669517 Hartrees.
 IExCor=  402 DFT=T Ex+Corr=B3LYP ExCW=0 ScaHFX=  0.200000
 ScaDFX=  0.800000  0.720000  1.000000  0.810000 ScalE2=  1.000000  1.000000
 IRadAn=      0 IRanWt=     -1 IRanGd=            0 ICorTp=0 IEmpDi=  4
 NAtoms=    9 NActive=    9 NUniq=    9 SFac= 1.00D+00 NAtFMM=   60 NAOKFM=F Big=F
 Integral buffers will be    131072 words long.
 Raffenetti 2 integral format.
 Two-electron integral symmetry is turned on.
 Leave Link  301 at Fri Jan  8 03:27:48 2021, MaxMem=    33554432 cpu:         0.0
 (Enter /apps/applications/gaussian/G09.D01/2/default/g09/l302.exe)
 NPDir=0 NMtPBC=     1 NCelOv=     1 NCel=       1 NClECP=     1 NCelD=      1
         NCelK=      1 NCelE2=     1 NClLst=     1 CellRange=     0.0.
 One-electron integrals computed using PRISM.
 NBasis=    46 RedAO= T EigKep=  1.31D-03  NBF=    46
 NBsUse=    46 1.00D-06 EigRej= -1.00D+00 NBFU=    46
 Precomputing XC quadrature grid using
 IXCGrd= 4 IRadAn=           0 IRanWt=          -1 IRanGd=           0 AccXCQ= 0.00D+00.
 Generated NRdTot=       0 NPtTot=           0 NUsed=           0 NTot=          32
 NSgBfM=    46    46    46    46    46 MxSgAt=     9 MxSgA2=     9.
 Leave Link  302 at Fri Jan  8 03:27:48 2021, MaxMem=    33554432 cpu:         0.1
 (Enter /apps/applications/gaussian/G09.D01/2/default/g09/l303.exe)
 DipDrv:  MaxL=1.
 Leave Link  303 at Fri Jan  8 03:27:48 2021, MaxMem=    33554432 cpu:         0.0
 (Enter /apps/applications/gaussian/G09.D01/2/default/g09/l401.exe)
 Initial guess from the checkpoint file:  "/nobackup/chmrsh/Scratch/Gau-42778.chk"
 B after Tr=     0.000000    0.000000    0.000000
         Rot=    0.999997   -0.000026   -0.000015   -0.002422 Ang=  -0.28 deg.
 Guess basis will be translated and rotated to current coordinates.
 JPrj=2 DoOrth=T DoCkMO=T.
 Initial guess <Sx>= 0.0000 <Sy>= 0.0000 <Sz>= 0.5000 <S**2>= 0.7516 S= 0.5008
 Leave Link  401 at Fri Jan  8 03:27:48 2021, MaxMem=    33554432 cpu:         0.1
 (Enter /apps/applications/gaussian/G09.D01/2/default/g09/l508.exe)
 Direct SCF.
 Tight linear equation convergence will be used.
 UB3LYP wavefunction.
 Quadratic Convergence SCF Method.
 Line search only if initial step raises energy.
 Integral symmetry usage will be decided dynamically.
 ReadGW:  IGet=1 IStart=         402 Next=         402 LGW=           0.
 Keep R1 and R2 ints in memory in canonical form, NReq=2054798.
 FoFCou: FMM=F IPFlag=           0 FMFlag=           0 FMFlg1=           0
         NFxFlg=           0 DoJE=F BraDBF=F KetDBF=F FulRan=T
         wScrn=  0.000000 ICntrl=     600 IOpCl=  0 I1Cent=           0 NGrid=           0
         NMat0=    1 NMatS0=   1081 NMatT0=    0 NMatD0=    1 NMtDS0=    0 NMtDT0=    0
 Symmetry not used in FoFCou.
 Iteration   1 EE= -191.332752551868                                    Grad=2.159D-03 Max rot=    0.0280 deg.
 QCNR:  CnvC1=3.07D-09 CnvC2=3.07D-08
 LinEq1:  Iter=  0 NonCon=     1 RMS=8.64D-05 Max=1.18D-03 NDo=     1
 AX will form     1 AO Fock derivatives at one time.
 LinEq1:  Iter=  1 NonCon=     1 RMS=1.78D-05 Max=3.22D-04 NDo=     1
 LinEq1:  Iter=  2 NonCon=     1 RMS=2.20D-05 Max=2.36D-04 NDo=     1
 LinEq1:  Iter=  3 NonCon=     1 RMS=1.45D-05 Max=2.50D-04 NDo=     1
 LinEq1:  Iter=  4 NonCon=     1 RMS=1.39D-05 Max=2.95D-04 NDo=     1
 LinEq1:  Iter=  5 NonCon=     1 RMS=4.20D-06 Max=3.93D-05 NDo=     1
 LinEq1:  Iter=  6 NonCon=     1 RMS=2.14D-06 Max=1.61D-05 NDo=     1
 LinEq1:  Iter=  7 NonCon=     1 RMS=4.02D-07 Max=4.31D-06 NDo=     1
 LinEq1:  Iter=  8 NonCon=     1 RMS=1.34D-07 Max=1.04D-06 NDo=     1
 LinEq1:  Iter=  9 NonCon=     1 RMS=7.80D-08 Max=6.80D-07 NDo=     1
 LinEq1:  Iter= 10 NonCon=     1 RMS=4.29D-08 Max=3.15D-07 NDo=     1
 LinEq1:  Iter= 11 NonCon=     1 RMS=8.62D-09 Max=1.26D-07 NDo=     1
 LinEq1:  Iter= 12 NonCon=     0 RMS=1.52D-09 Max=1.43D-08 NDo=     1
 Linear equations converged to 3.074D-09 3.074D-08 after    12 iterations.
 Angle between quadratic step and gradient=  60.28 degrees.
     ILin= 1 X=0.000D+00 Y=-1.913327525519D+02 DE= 0.00D+00 F= -1.04D-05
     ILin= 2 X=1.000D+00 Y=-1.913327577529D+02 DE=-5.20D-06 F=  4.14D-10
     Accept linear search using points  1 and  2.
     An  expanding polynomial of degree  2 produced  1.0000
     Minimum is close to point  2 DX= -3.98D-05 DF=  0.00D+00 DXR=  3.98D-05 DFR=  0.00D+00 which will be used.
 Iteration   2 EE= -191.332757752873     Delta-E=       -0.000005201005 Grad=9.690D-07 Max rot=    0.0000 deg.
 QCNR:  CnvC1=9.69D-12 CnvC2=9.69D-11
 LinEq1:  Iter=  0 NonCon=     1 RMS=4.12D-08 Max=6.51D-07 NDo=     1
 LinEq1:  Iter=  1 NonCon=     1 RMS=1.89D-08 Max=2.43D-07 NDo=     1
 LinEq1:  Iter=  2 NonCon=     1 RMS=1.63D-08 Max=3.03D-07 NDo=     1
 LinEq1:  Iter=  3 NonCon=     1 RMS=1.89D-08 Max=2.88D-07 NDo=     1
 LinEq1:  Iter=  4 NonCon=     1 RMS=1.24D-08 Max=1.73D-07 NDo=     1
 LinEq1:  Iter=  5 NonCon=     1 RMS=3.00D-09 Max=2.61D-08 NDo=     1
 LinEq1:  Iter=  6 NonCon=     1 RMS=8.32D-10 Max=7.59D-09 NDo=     1
 LinEq1:  Iter=  7 NonCon=     1 RMS=4.35D-10 Max=3.49D-09 NDo=     1
 LinEq1:  Iter=  8 NonCon=     1 RMS=2.18D-10 Max=1.99D-09 NDo=     1
 LinEq1:  Iter=  9 NonCon=     1 RMS=7.02D-11 Max=5.34D-10 NDo=     1
 LinEq1:  Iter= 10 NonCon=     1 RMS=1.92D-11 Max=2.08D-10 NDo=     1
 LinEq1:  Iter= 11 NonCon=     1 RMS=8.76D-12 Max=9.81D-11 NDo=     1
 LinEq1:  Iter= 12 NonCon=     0 RMS=2.07D-12 Max=1.58D-11 NDo=     1
 Linear equations converged to 9.690D-12 9.690D-11 after    12 iterations.
 Angle between quadratic step and gradient=  72.46 degrees.
     ILin= 1 X=0.000D+00 Y=-1.913327577529D+02 DE= 0.00D+00 F= -2.63D-12
     ILin= 2 X=1.000D+00 Y=-1.913327577529D+02 DE=-1.48D-12
 Iteration   3 EE= -191.332757752874     Delta-E=       -0.000000000001 Grad=2.986D-10 Max rot=    0.0000 deg.
 Rotation gradient small -- convergence achieved.
 SCF Done:  E(UB3LYP) =  -191.332757753     a.u. after    3 cycles
            Convg  =    0.2986D-09                    27 Fock formations.
              S**2 =  0.7516                  -V/T =  2.0088
 <Sx>= 0.0000 <Sy>= 0.0000 <Sz>= 0.5000 <S**2>= 0.7516 S= 0.5008
 <L.S>= 0.000000000000E+00
 Annihilation of the first spin contaminant:
 S**2 before annihilation     0.7516,   after     0.7500
 Leave Link  508 at Fri Jan  8 03:28:07 2021, MaxMem=    33554432 cpu:        18.5
 (Enter /apps/applications/gaussian/G09.D01/2/default/g09/l801.exe)
 DoSCS=F DFT=T ScalE2(SS,OS)=  1.000000  1.000000
 Range of M.O.s used for correlation:     1    46
 NBasis=    46 NAE=    16 NBE=    15 NFC=     0 NFV=     0
 NROrb=     46 NOA=    16 NOB=    15 NVA=    30 NVB=    31

 **** Warning!!: The largest alpha MO coefficient is  0.10670082D+02


 **** Warning!!: The largest beta MO coefficient is  0.10657626D+02

 Leave Link  801 at Fri Jan  8 03:28:07 2021, MaxMem=    33554432 cpu:         0.0
 (Enter /apps/applications/gaussian/G09.D01/2/default/g09/l1101.exe)
 Using compressed storage, NAtomX=     9.
 Will process     10 centers per pass.
 Leave Link 1101 at Fri Jan  8 03:28:07 2021, MaxMem=    33554432 cpu:         0.1
 (Enter /apps/applications/gaussian/G09.D01/2/default/g09/l1102.exe)
 Symmetrizing basis deriv contribution to polar:
 IMax=3 JMax=2 DiffMx= 0.00D+00
 Leave Link 1102 at Fri Jan  8 03:28:07 2021, MaxMem=    33554432 cpu:         0.0
 (Enter /apps/applications/gaussian/G09.D01/2/default/g09/l1110.exe)
 Forming Gx(P) for the SCF density, NAtomX=     9.
 Integral derivatives from FoFJK, PRISM(SPDF).
 Do as many integral derivatives as possible in FoFJK.
 G2DrvN: MDV=      33554256.
 G2DrvN: will do    10 centers at a time, making    1 passes.
 Calling FoFCou, ICntrl=  3107 FMM=F I1Cent=   0 AccDes= 0.00D+00.
 FoFJK:  IHMeth= 1 ICntrl=    3107 DoSepK=F KAlg= 0 I1Cent=   0 FoldK=F
 IRaf=         0 NMat=   1 IRICut=       1 DoRegI=T DoRafI=F ISym2E= 0.
 FoFCou: FMM=F IPFlag=           0 FMFlag=      100000 FMFlg1=           0
         NFxFlg=           0 DoJE=F BraDBF=F KetDBF=F FulRan=T
         wScrn=  0.000000 ICntrl=    3107 IOpCl=  1 I1Cent=           0 NGrid=           0
         NMat0=    1 NMatS0=      1 NMatT0=    0 NMatD0=    1 NMtDS0=    0 NMtDT0=    0
 Symmetry not used in FoFCou.
 End of G2Drv F.D. properties file   721 does not exist.
 End of G2Drv F.D. properties file   722 does not exist.
 End of G2Drv F.D. properties file   788 does not exist.
 Leave Link 1110 at Fri Jan  8 03:28:17 2021, MaxMem=    33554432 cpu:         9.9
 (Enter /apps/applications/gaussian/G09.D01/2/default/g09/l1002.exe)
 Minotr:  UHF open shell wavefunction.
          IDoAtm=111111111
          Direct CPHF calculation.
          Differentiating once with respect to electric field.
                with respect to dipole field.
          Differentiating once with respect to nuclear coordinates.
          Requested convergence is 1.0D-08 RMS, and 1.0D-07 maximum.
          Secondary convergence is 1.0D-12 RMS, and 1.0D-12 maximum.
          NewPWx=T KeepS1=F KeepF1=F KeepIn=T MapXYZ=F SortEE=F KeepMc=T.
          MDV=      33554246 using IRadAn=       2.
 Generate precomputed XC quadrature information.
 Keep R1 and R2 ints in memory in canonical form, NReq=2035813.
 FoFCou: FMM=F IPFlag=           0 FMFlag=           0 FMFlg1=           0
         NFxFlg=           0 DoJE=F BraDBF=F KetDBF=F FulRan=T
         wScrn=  0.000000 ICntrl=     600 IOpCl=  0 I1Cent=           0 NGrid=           0
         NMat0=    1 NMatS0=   1081 NMatT0=    0 NMatD0=    1 NMtDS0=    0 NMtDT0=    0
 Symmetry not used in FoFCou.
          Solving linear equations simultaneously, MaxMat=       0.
          There are    30 degrees of freedom in the 1st order CPHF.  IDoFFX=6 NUNeed=     3.
     27 vectors produced by pass  0 Test12= 3.15D-15 3.33D-09 XBig12= 9.62D+01 4.10D+00.
 AX will form    27 AO Fock derivatives at one time.
     27 vectors produced by pass  1 Test12= 3.15D-15 3.33D-09 XBig12= 1.58D+01 7.83D-01.
     27 vectors produced by pass  2 Test12= 3.15D-15 3.33D-09 XBig12= 1.58D-01 6.99D-02.
     27 vectors produced by pass  3 Test12= 3.15D-15 3.33D-09 XBig12= 2.02D-04 2.73D-03.
     27 vectors produced by pass  4 Test12= 3.15D-15 3.33D-09 XBig12= 2.71D-07 1.02D-04.
     22 vectors produced by pass  5 Test12= 3.15D-15 3.33D-09 XBig12= 7.43D-10 4.65D-06.
      6 vectors produced by pass  6 Test12= 3.15D-15 3.33D-09 XBig12= 1.48D-12 1.85D-07.
      2 vectors produced by pass  7 Test12= 3.15D-15 3.33D-09 XBig12= 3.00D-15 7.23D-09.
 InvSVY:  IOpt=1 It=  1 EMax= 4.44D-15
 Solved reduced A of dimension   165 with    30 vectors.
 FullF1:  Do perturbations    1 to     3.
 Isotropic polarizability for W=    0.000000       31.00 Bohr**3.
 End of Minotr F.D. properties file   721 does not exist.
 End of Minotr F.D. properties file   722 does not exist.
 End of Minotr F.D. properties file   788 does not exist.
 Leave Link 1002 at Fri Jan  8 03:28:26 2021, MaxMem=    33554432 cpu:         8.6
 (Enter /apps/applications/gaussian/G09.D01/2/default/g09/l701.exe)
 Compute integral second derivatives.
 ... and contract with generalized density number  0.
 Leave Link  701 at Fri Jan  8 03:28:26 2021, MaxMem=    33554432 cpu:         0.1
 (Enter /apps/applications/gaussian/G09.D01/2/default/g09/l702.exe)
 L702 exits ... SP integral derivatives will be done elsewhere.
 Leave Link  702 at Fri Jan  8 03:28:26 2021, MaxMem=    33554432 cpu:         0.0
 (Enter /apps/applications/gaussian/G09.D01/2/default/g09/l703.exe)
 Compute integral second derivatives, UseDBF=F ICtDFT=           0.
 Integral derivatives from FoFJK, PRISM(SPDF).
 Calling FoFJK, ICntrl=    100127 FMM=F ISym2X=0 I1Cent= 0 IOpClX= 1 NMat=1 NMatS=1 NMatT=0.
 FoFJK:  IHMeth= 1 ICntrl=  100127 DoSepK=F KAlg= 0 I1Cent=   0 FoldK=F
 IRaf=         0 NMat=   1 IRICut=       1 DoRegI=T DoRafI=F ISym2E= 0.
 FoFCou: FMM=F IPFlag=           0 FMFlag=      100000 FMFlg1=         800
         NFxFlg=           0 DoJE=F BraDBF=F KetDBF=F FulRan=T
         wScrn=  0.000000 ICntrl=  100127 IOpCl=  1 I1Cent=           0 NGrid=           0
         NMat0=    1 NMatS0=      1 NMatT0=    0 NMatD0=    1 NMtDS0=    0 NMtDT0=    0
 Symmetry not used in FoFCou.
 Leave Link  703 at Fri Jan  8 03:28:34 2021, MaxMem=    33554432 cpu:         8.6
 (Enter /apps/applications/gaussian/G09.D01/2/default/g09/l716.exe)
 Dipole        =-1.87007006D-01 6.25094920D-02 5.83410951D-01
 Polarizability= 2.90205549D+01 2.44989063D+00 4.40907458D+01
                 5.45325520D-01 1.04303337D+00 1.98994651D+01
 ***** Axes restored to original set *****
 -------------------------------------------------------------------
 Center     Atomic                   Forces (Hartrees/Bohr)
 Number     Number              X              Y              Z
 -------------------------------------------------------------------
      1        6           0.000000038    0.000000638   -0.000002843
      2        6          -0.000001625   -0.000000142   -0.000001056
      3        1          -0.000001940    0.000000687   -0.000000468
      4        1           0.000000490    0.000002482   -0.000000037
      5        1           0.000001537   -0.000000493    0.000000509
      6        6          -0.000001109    0.000000049    0.000003288
      7        1          -0.000000918   -0.000000650    0.000001769
      8        8          -0.000005616   -0.000003510   -0.000002434
      9        1           0.000009142    0.000000939    0.000001273
 -------------------------------------------------------------------
 Cartesian Forces:  Max     0.000009142 RMS     0.000002570
 Force constants in Cartesian coordinates: 
                1             2             3             4             5 
      1  0.517778D+00
      2  0.335399D-01  0.506522D+00
      3 -0.960235D-02  0.133297D-01  0.549402D+00
      4 -0.143598D+00  0.896871D-01 -0.292954D-02  0.641045D+00
      5  0.895873D-01 -0.179588D+00  0.327558D-02 -0.651803D+00  0.886939D+00
      6 -0.409055D-02  0.447424D-02 -0.647042D-01  0.106053D-01 -0.154001D-01
      7 -0.244768D+00 -0.592033D-01  0.942208D-01 -0.251302D-01  0.167825D-02
      8 -0.593739D-01 -0.641873D-01  0.285528D-01  0.317099D-01  0.439081D-02
      9  0.947504D-01  0.284785D-01 -0.907394D-01 -0.407206D-02 -0.292367D-02
     10 -0.839629D-01 -0.774908D-01 -0.484340D-01  0.774091D-02  0.244603D-01
     11 -0.773975D-01 -0.207969D+00 -0.990839D-01 -0.402938D-02 -0.293978D-01
     12 -0.484533D-01 -0.993337D-01 -0.108107D+00  0.406641D-02  0.360954D-02
     13 -0.528537D-01  0.427243D-02 -0.349028D-01 -0.872255D-02  0.106032D-01
     14  0.455883D-02 -0.593808D-01  0.554007D-01  0.910899D-02 -0.143251D-01
     15 -0.357217D-01  0.573503D-01 -0.293942D+00 -0.531719D-02  0.613117D-02
     16  0.351632D-02  0.316591D-02 -0.309762D-04 -0.475407D+00  0.527502D+00
     17  0.374669D-02  0.352624D-02  0.413298D-03  0.528542D+00 -0.674290D+00
     18  0.231164D-03  0.553386D-04  0.692322D-02 -0.978250D-02  0.117977D-01
     19  0.361455D-02  0.256259D-02 -0.165472D-03  0.505685D-02 -0.170830D-02
     20  0.249902D-02  0.248824D-02 -0.191515D-04 -0.328557D-02  0.698127D-02
     21 -0.381146D-03  0.276454D-03  0.517975D-02  0.143105D-02 -0.148048D-02
     22  0.156931D-03  0.259226D-02  0.128412D-02 -0.653658D-03 -0.909815D-03
     23  0.354651D-02 -0.135274D-02 -0.132758D-02  0.180227D-03 -0.907008D-03
     24  0.339769D-02 -0.407341D-02 -0.388434D-02  0.548292D-02 -0.620880D-02
     25  0.117223D-03  0.873880D-03  0.560284D-03 -0.332406D-03  0.589735D-03
     26 -0.706804D-03 -0.579272D-04 -0.541495D-03 -0.110632D-03  0.196590D-03
     27 -0.130199D-03 -0.557369D-03 -0.128369D-03  0.515650D-03  0.119898D-02
                6             7             8             9            10 
      6  0.959707D-01
      7  0.796183D-02  0.273792D+00
      8 -0.143311D-01  0.599349D-01  0.726394D-01
      9 -0.236244D-03 -0.105055D+00 -0.305378D-01  0.964066D-01
     10  0.146979D-01 -0.111894D-01 -0.243200D-01 -0.163835D-01  0.927917D-01
     11 -0.121885D-01 -0.369589D-02 -0.695440D-02 -0.392338D-02  0.808614D-01
     12  0.297557D-03  0.520390D-02  0.129745D-01  0.668894D-02  0.524768D-01
     13 -0.250910D-01  0.566453D-02 -0.727752D-02  0.307801D-01 -0.346524D-02
     14  0.301148D-01  0.114373D-02 -0.338510D-02  0.853547D-02 -0.355943D-02
     15 -0.158149D-04 -0.186753D-02  0.177838D-02 -0.115959D-01 -0.915976D-03
     16 -0.534493D-02  0.112905D-02  0.231054D-03 -0.843541D-04 -0.135126D-02
     17  0.620078D-02 -0.182087D-03 -0.182506D-02  0.115553D-02  0.531963D-03
     18 -0.348796D-01 -0.178913D-05  0.832560D-03  0.537461D-03 -0.108876D-02
     19 -0.100256D-03  0.490468D-03 -0.774314D-03  0.166247D-03 -0.615119D-03
     20  0.376120D-03  0.416240D-03 -0.618090D-03  0.131277D-03 -0.491407D-03
     21  0.320014D-02 -0.264219D-03  0.489086D-03  0.798425D-05 -0.449235D-03
     22  0.184154D-02 -0.238234D-04 -0.129726D-03  0.299623D-03 -0.140548D-04
     23  0.519726D-03 -0.167056D-03  0.137680D-03 -0.120458D-02 -0.144258D-03
     24  0.461657D-02 -0.849876D-04  0.108732D-03 -0.123709D-02  0.914258D-04
     25 -0.479851D-03  0.356275D-04  0.000000D+00 -0.401149D-03  0.653826D-04
     26  0.234071D-03  0.751460D-04 -0.197947D-03  0.288666D-03  0.152083D-03
     27 -0.424920D-02 -0.112746D-03  0.132847D-03  0.167626D-03  0.540531D-05
               11            12            13            14            15 
     11  0.234740D+00
     12  0.111092D+00  0.115180D+00
     13  0.349434D-02 -0.127708D-01  0.614905D-01
     14  0.795618D-02 -0.278216D-01 -0.114591D-01  0.704359D-01
     15  0.326008D-02 -0.131718D-01  0.409502D-01 -0.648148D-01  0.323374D+00
     16  0.441736D-03 -0.130595D-02 -0.510274D-03  0.172125D-02  0.177722D-02
     17  0.114794D-02  0.281663D-03  0.164125D-02 -0.107435D-02 -0.210660D-02
     18  0.219514D-03  0.503174D-03  0.141166D-02 -0.152902D-02 -0.556054D-03
     19  0.584348D-03 -0.116696D-03 -0.641904D-04  0.697992D-04 -0.176452D-04
     20  0.450812D-03 -0.107943D-03  0.423118D-05  0.176425D-04  0.196627D-04
     21  0.406796D-03 -0.496996D-04  0.767738D-03 -0.821028D-03 -0.302870D-04
     22 -0.190789D-03  0.743082D-03 -0.423930D-03 -0.675515D-03  0.143868D-02
     23  0.163450D-03 -0.479399D-03 -0.234166D-02 -0.123195D-02 -0.217829D-02
     24  0.144476D-03 -0.132358D-02 -0.145303D-02  0.612806D-03 -0.438742D-02
     25 -0.683401D-04  0.156613D-03 -0.111513D-02 -0.908570D-03 -0.326129D-03
     26 -0.136498D-03 -0.214716D-03  0.106276D-02  0.987564D-03  0.560107D-03
     27  0.732461D-04 -0.170770D-04  0.307917D-03  0.322664D-03  0.325273D-03
               16            17            18            19            20 
     16  0.654635D+00
     17 -0.729407D+00  0.940813D+00
     18  0.168004D-01 -0.209813D-01  0.532517D-01
     19 -0.181812D+00  0.194933D+00 -0.737773D-02  0.173141D+00
     20  0.196394D+00 -0.267950D+00  0.927175D-02 -0.195623D+00  0.258750D+00
     21 -0.854979D-02  0.106668D-01 -0.242923D-01  0.751080D-02 -0.981784D-02
     22 -0.672912D-03  0.201209D-03  0.119785D-02  0.634172D-04  0.106683D-03
     23 -0.441080D-03  0.399414D-03  0.333381D-03  0.183302D-04  0.681233D-04
     24 -0.354196D-02  0.469963D-02 -0.224358D-03  0.168692D-03 -0.655928D-04
     25  0.473295D-03 -0.725133D-05 -0.139024D-02  0.125434D-03 -0.197903D-04
     26  0.392287D-03 -0.747147D-03  0.000000D+00 -0.623244D-04 -0.187763D-03
     27  0.280396D-03 -0.329808D-03 -0.126333D-02 -0.679348D-04  0.211715D-03
               21            22            23            24            25 
     21  0.158828D-01
     22 -0.493180D-04  0.341093D+00
     23 -0.377709D-03  0.912959D-01  0.299359D-01
     24  0.946268D-04  0.913350D-01  0.325261D-01  0.325137D-01
     25 -0.158752D-04 -0.339525D+00 -0.919469D-01 -0.953958D-01  0.340156D+00
     26  0.657900D-03 -0.922902D-01 -0.272129D-01 -0.277440D-01  0.914877D-01
     27  0.693115D-05 -0.980906D-01 -0.278117D-01 -0.261682D-01  0.972921D-01
               26            27 
     26  0.273560D-01
     27  0.267594D-01  0.313263D-01
 Leave Link  716 at Fri Jan  8 03:28:34 2021, MaxMem=    33554432 cpu:         0.0
 (Enter /apps/applications/gaussian/G09.D01/2/default/g09/l103.exe)

 GradGradGradGradGradGradGradGradGradGradGradGradGradGradGradGradGradGrad
 Berny optimization.
 Search for a saddle point.
 Step number   2 out of a maximum of  100
 All quantities printed in internal units (Hartrees-Bohrs-Radians)
 Swapping is turned off.
 Second derivative matrix not updated -- analytic derivatives used.
 ITU=  0  0
     Eigenvalues ---   -0.00311   0.00097   0.00324   0.00424   0.01293
     Eigenvalues ---    0.01384   0.01430   0.05715   0.05951   0.08920
     Eigenvalues ---    0.10853   0.11145   0.16026   0.16538   0.24025
     Eigenvalues ---    0.48291   0.65758   0.73014   0.75265   0.77611
     Eigenvalues ---    2.65335
 Eigenvectors required to have negative eigenvalues:
                          Z8        Z7        Y8        Z9        Z6
   1                    0.55355  -0.34654  -0.31997  -0.31212  -0.27973
                          Y9        X9        Z2        Y5        X8
   1                    0.25331   0.24394  -0.20425   0.19626   0.15820
 RFO step:  Lambda0=6.214371856D-11 Lambda= 0.00000000D+00.
 Linear search not attempted -- option 19 set.
 TrRot= -0.000012  0.000006  0.000018  0.000000 -0.000005  0.000000
 Variable       Old X    -DE/DX   Delta X   Delta X   Delta X     New X
                                 (Linear)    (Quad)   (Total)
    X1        1.48104   0.00000   0.00000   0.00000  -0.00001   1.48103
    Y1       -1.49817   0.00000   0.00000   0.00000   0.00001  -1.49816
    Z1       -1.02427   0.00000   0.00000   0.00002   0.00005  -1.02422
    X2       -0.28254   0.00000   0.00000   0.00000  -0.00001  -0.28255
    Y2        0.63120   0.00000   0.00000   0.00000   0.00001   0.63121
    Z2       -1.12784   0.00000   0.00000  -0.00002   0.00000  -1.12784
    X3        3.30047   0.00000   0.00000  -0.00007  -0.00007   3.30040
    Y3       -0.99240   0.00000   0.00000  -0.00007  -0.00007  -0.99247
    Z3       -1.87463   0.00000   0.00000  -0.00015  -0.00012  -1.87475
    X4        0.72656   0.00000   0.00000  -0.00008  -0.00009   0.72648
    Y4       -3.14903   0.00000   0.00000  -0.00007  -0.00006  -3.14909
    Z4       -2.02204   0.00000   0.00000   0.00021   0.00024  -2.02180
    X5        1.76793   0.00000   0.00000   0.00014   0.00012   1.76805
    Y5       -1.95378   0.00000   0.00000   0.00016   0.00016  -1.95361
    Z5        0.97194   0.00000   0.00000   0.00005   0.00007   0.97202
    X6       -1.74461   0.00000   0.00000   0.00001   0.00001  -1.74460
    Y6        2.38599   0.00000   0.00000   0.00002   0.00002   2.38601
    Z6       -1.14844   0.00000   0.00000   0.00005   0.00006  -1.14838
    X7       -3.00074   0.00000   0.00000   0.00002   0.00002  -3.00072
    Y7        3.94901   0.00000   0.00000   0.00002   0.00003   3.94904
    Z7       -1.21114   0.00000   0.00000   0.00011   0.00012  -1.21102
    X8       -0.23411  -0.00001   0.00000  -0.00006  -0.00009  -0.23420
    Y8        0.55842   0.00000   0.00000   0.00002   0.00002   0.55844
    Z8        3.97207   0.00000   0.00000   0.00004   0.00006   3.97213
    X9       -2.01402   0.00001   0.00000   0.00015   0.00013  -2.01389
    Y9        0.06876   0.00000   0.00000  -0.00013  -0.00012   0.06863
    Z9        3.46434   0.00000   0.00000  -0.00049  -0.00048   3.46386
         Item               Value     Threshold  Converged?
 Maximum Force            0.000009     0.000450     YES
 RMS     Force            0.000003     0.000300     YES
 Maximum Displacement     0.000482     0.001800     YES
[...]
 Total                   45.321             19.090             75.594
 Electronic               0.000              0.000              1.377
 Translational            0.889              2.981             38.044
 Rotational               0.889              2.981             25.068
 Vibrational             43.543             13.129             11.104
 Vibration     1          0.618              1.904              2.685
 Vibration     2          0.632              1.860              2.272
 Vibration     3          0.679              1.714              1.546
 Vibration     4          0.685              1.696              1.486
 Vibration     5          0.729              1.569              1.153
 Vibration     6          0.739              1.543              1.097
                       Q            Log10(Q)             Ln(Q)
 Total Bot       0.734427D-17        -17.134051        -39.452611
 Total V=0       0.217878D+14         13.338213         30.712371
 Vib (Bot)       0.322988D-29        -29.490813        -67.905106
 Vib (Bot)    1  0.136092D+01          0.133832          0.308159
 Vib (Bot)    2  0.108053D+01          0.033636          0.077450
 Vib (Bot)    3  0.692537D+00         -0.159557         -0.367394
 Vib (Bot)    4  0.664993D+00         -0.177183         -0.407978
 Vib (Bot)    5  0.521636D+00         -0.282633         -0.650785
 Vib (Bot)    6  0.499070D+00         -0.301839         -0.695009
 Vib (V=0)       0.958190D+01          0.981451          2.259875
 Vib (V=0)    1  0.194986D+01          0.290004          0.667758
 Vib (V=0)    2  0.169061D+01          0.228042          0.525086
 Vib (V=0)    3  0.135417D+01          0.131673          0.303189
 Vib (V=0)    4  0.133200D+01          0.124503          0.286678
 Vib (V=0)    5  0.122257D+01          0.087273          0.200953
 Vib (V=0)    6  0.120645D+01          0.081509          0.187682
 Electronic      0.200000D+01          0.301030          0.693147
 Translational   0.169300D+08          7.228656         16.644596
 Rotational      0.671545D+05          4.827075         11.114752
 
                                                    Gaussian input prepared by AS
 E
                                                             IR Spectrum
 
     3      3      33 3                            2                       11   1          11                                        
     4      3      11 0                            2                       55   4          11      9      77           3322   11     
     9      1      30 5                            3                       64   5          10      1      10           6587   84     
     6      0      49 2                            1                       94   0          85      7      98           6388   69     
 
     X      X       X X                            X                       XX   X          XX      X      XX           XXXX   XX     
     X      X       X X                            X                       X    X           X             XX           XXXX   XX     
     X                X                                                         X           X             XX           XXXX   XX     
     X                X                                                                     X             XX           XXXX          
     X                                                                                                    XX           XXXX          
     X                                                                                                    XX           X XX          
     X                                                                                                    XX           X XX          
     X                                                                                                    XX           X XX          
     X                                                                                                    XX           X XX          
     X                                                                                                    XX           X XX          
     X                                                                                                    XX           X XX          
     X                                                                                                    XX           X XX          
     X                                                                                                    XX           X XX          
     X                                                                                                     X           X  X          
     X                                                                                                                 X  X          
                                                                                                                       X  X          
                                                                                                                       X  X          
                                                                                                                       X  X          
                                                                                                                       X             
                                                                                                                       X             
 
 ***** Axes restored to original set *****
 -------------------------------------------------------------------
 Center     Atomic                   Forces (Hartrees/Bohr)
 Number     Number              X              Y              Z
 -------------------------------------------------------------------
      1        6           0.000000038    0.000000638   -0.000002843
      2        6          -0.000001625   -0.000000142   -0.000001056
      3        1          -0.000001940    0.000000687   -0.000000468
      4        1           0.000000490    0.000002482   -0.000000037
      5        1           0.000001537   -0.000000493    0.000000509
      6        6          -0.000001109    0.000000049    0.000003288
      7        1          -0.000000918   -0.000000650    0.000001769
      8        8          -0.000005616   -0.000003510   -0.000002434
      9        1           0.000009142    0.000000939    0.000001273
 -------------------------------------------------------------------
 Cartesian Forces:  Max     0.000009142 RMS     0.000002570
 Force constants in Cartesian coordinates: 
                1             2             3             4             5 
      1  0.517778D+00
      2  0.335399D-01  0.506522D+00
      3 -0.960235D-02  0.133297D-01  0.549402D+00
      4 -0.143598D+00  0.896871D-01 -0.292954D-02  0.641045D+00
      5  0.895873D-01 -0.179588D+00  0.327558D-02 -0.651803D+00  0.886939D+00
      6 -0.409055D-02  0.447424D-02 -0.647042D-01  0.106053D-01 -0.154001D-01
      7 -0.244768D+00 -0.592033D-01  0.942208D-01 -0.251302D-01  0.167825D-02
      8 -0.593739D-01 -0.641873D-01  0.285528D-01  0.317099D-01  0.439081D-02
      9  0.947504D-01  0.284785D-01 -0.907394D-01 -0.407206D-02 -0.292367D-02
     10 -0.839629D-01 -0.774908D-01 -0.484340D-01  0.774091D-02  0.244603D-01
     11 -0.773975D-01 -0.207969D+00 -0.990839D-01 -0.402938D-02 -0.293978D-01
     12 -0.484533D-01 -0.993337D-01 -0.108107D+00  0.406641D-02  0.360954D-02
     13 -0.528537D-01  0.427243D-02 -0.349028D-01 -0.872255D-02  0.106032D-01
     14  0.455883D-02 -0.593808D-01  0.554007D-01  0.910899D-02 -0.143251D-01
     15 -0.357217D-01  0.573503D-01 -0.293942D+00 -0.531719D-02  0.613117D-02
     16  0.351632D-02  0.316591D-02 -0.309762D-04 -0.475407D+00  0.527502D+00
     17  0.374669D-02  0.352624D-02  0.413298D-03  0.528542D+00 -0.674290D+00
     18  0.231164D-03  0.553386D-04  0.692322D-02 -0.978250D-02  0.117977D-01
     19  0.361455D-02  0.256259D-02 -0.165472D-03  0.505685D-02 -0.170830D-02
     20  0.249902D-02  0.248824D-02 -0.191515D-04 -0.328557D-02  0.698127D-02
     21 -0.381146D-03  0.276454D-03  0.517975D-02  0.143105D-02 -0.148048D-02
     22  0.156931D-03  0.259226D-02  0.128412D-02 -0.653658D-03 -0.909815D-03
     23  0.354651D-02 -0.135274D-02 -0.132758D-02  0.180227D-03 -0.907008D-03
     24  0.339769D-02 -0.407341D-02 -0.388434D-02  0.548292D-02 -0.620880D-02
     25  0.117223D-03  0.873880D-03  0.560284D-03 -0.332406D-03  0.589735D-03
     26 -0.706804D-03 -0.579272D-04 -0.541495D-03 -0.110632D-03  0.196590D-03
     27 -0.130199D-03 -0.557369D-03 -0.128369D-03  0.515650D-03  0.119898D-02
                6             7             8             9            10 
      6  0.959707D-01
      7  0.796183D-02  0.273792D+00
      8 -0.143311D-01  0.599349D-01  0.726394D-01
      9 -0.236244D-03 -0.105055D+00 -0.305378D-01  0.964066D-01
     10  0.146979D-01 -0.111894D-01 -0.243200D-01 -0.163835D-01  0.927917D-01
     11 -0.121885D-01 -0.369589D-02 -0.695440D-02 -0.392338D-02  0.808614D-01
     12  0.297557D-03  0.520390D-02  0.129745D-01  0.668894D-02  0.524768D-01
     13 -0.250910D-01  0.566453D-02 -0.727752D-02  0.307801D-01 -0.346524D-02
     14  0.301148D-01  0.114373D-02 -0.338510D-02  0.853547D-02 -0.355943D-02
     15 -0.158149D-04 -0.186753D-02  0.177838D-02 -0.115959D-01 -0.915976D-03
     16 -0.534493D-02  0.112905D-02  0.231054D-03 -0.843541D-04 -0.135126D-02
     17  0.620078D-02 -0.182087D-03 -0.182506D-02  0.115553D-02  0.531963D-03
     18 -0.348796D-01 -0.178913D-05  0.832560D-03  0.537461D-03 -0.108876D-02
     19 -0.100256D-03  0.490468D-03 -0.774314D-03  0.166247D-03 -0.615119D-03
     20  0.376120D-03  0.416240D-03 -0.618090D-03  0.131277D-03 -0.491407D-03
     21  0.320014D-02 -0.264219D-03  0.489086D-03  0.798425D-05 -0.449235D-03
     22  0.184154D-02 -0.238234D-04 -0.129726D-03  0.299623D-03 -0.140548D-04
     23  0.519726D-03 -0.167056D-03  0.137680D-03 -0.120458D-02 -0.144258D-03
     24  0.461657D-02 -0.849876D-04  0.108732D-03 -0.123709D-02  0.914258D-04
     25 -0.479851D-03  0.356275D-04  0.000000D+00 -0.401149D-03  0.653826D-04
     26  0.234071D-03  0.751460D-04 -0.197947D-03  0.288666D-03  0.152083D-03
     27 -0.424920D-02 -0.112746D-03  0.132847D-03  0.167626D-03  0.540531D-05
               11            12            13            14            15 
     11  0.234740D+00
     12  0.111092D+00  0.115180D+00
     13  0.349434D-02 -0.127708D-01  0.614905D-01
     14  0.795618D-02 -0.278216D-01 -0.114591D-01  0.704359D-01
     15  0.326008D-02 -0.131718D-01  0.409502D-01 -0.648148D-01  0.323374D+00
     16  0.441736D-03 -0.130595D-02 -0.510274D-03  0.172125D-02  0.177722D-02
     17  0.114794D-02  0.281663D-03  0.164125D-02 -0.107435D-02 -0.210660D-02
     18  0.219514D-03  0.503174D-03  0.141166D-02 -0.152902D-02 -0.556054D-03
     19  0.584348D-03 -0.116696D-03 -0.641904D-04  0.697992D-04 -0.176452D-04
     20  0.450812D-03 -0.107943D-03  0.423118D-05  0.176425D-04  0.196627D-04
     21  0.406796D-03 -0.496996D-04  0.767738D-03 -0.821028D-03 -0.302870D-04
     22 -0.190789D-03  0.743082D-03 -0.423930D-03 -0.675515D-03  0.143868D-02
     23  0.163450D-03 -0.479399D-03 -0.234166D-02 -0.123195D-02 -0.217829D-02
     24  0.144476D-03 -0.132358D-02 -0.145303D-02  0.612806D-03 -0.438742D-02
     25 -0.683401D-04  0.156613D-03 -0.111513D-02 -0.908570D-03 -0.326129D-03
     26 -0.136498D-03 -0.214716D-03  0.106276D-02  0.987564D-03  0.560107D-03
     27  0.732461D-04 -0.170770D-04  0.307917D-03  0.322664D-03  0.325273D-03
               16            17            18            19            20 
     16  0.654635D+00
     17 -0.729407D+00  0.940813D+00
     18  0.168004D-01 -0.209813D-01  0.532517D-01
     19 -0.181812D+00  0.194933D+00 -0.737773D-02  0.173141D+00
     20  0.196394D+00 -0.267950D+00  0.927175D-02 -0.195623D+00  0.258750D+00
     21 -0.854979D-02  0.106668D-01 -0.242923D-01  0.751080D-02 -0.981784D-02
     22 -0.672912D-03  0.201209D-03  0.119785D-02  0.634172D-04  0.106683D-03
     23 -0.441080D-03  0.399414D-03  0.333381D-03  0.183302D-04  0.681233D-04
     24 -0.354196D-02  0.469963D-02 -0.224358D-03  0.168692D-03 -0.655928D-04
     25  0.473295D-03 -0.725133D-05 -0.139024D-02  0.125434D-03 -0.197903D-04
     26  0.392287D-03 -0.747147D-03  0.000000D+00 -0.623244D-04 -0.187763D-03
     27  0.280396D-03 -0.329808D-03 -0.126333D-02 -0.679348D-04  0.211715D-03
               21            22            23            24            25 
     21  0.158828D-01
     22 -0.493180D-04  0.341093D+00
     23 -0.377709D-03  0.912959D-01  0.299359D-01
     24  0.946268D-04  0.913350D-01  0.325261D-01  0.325137D-01
     25 -0.158752D-04 -0.339525D+00 -0.919469D-01 -0.953958D-01  0.340156D+00
     26  0.657900D-03 -0.922902D-01 -0.272129D-01 -0.277440D-01  0.914877D-01
     27  0.693115D-05 -0.980906D-01 -0.278117D-01 -0.261682D-01  0.972921D-01
               26            27 
     26  0.273560D-01
     27  0.267594D-01  0.313263D-01
 Leave Link  716 at Fri Jan  8 03:28:35 2021, MaxMem=    33554432 cpu:         0.0
 (Enter /apps/applications/gaussian/G09.D01/2/default/g09/l9999.exe)
 1\1\GINC-DC1S1B1B\Freq\UB3LYP\3-21G\C3H5O1(2)\CHMRSH\08-Jan-2021\0\\#P
  b3lyp/3-21G scf=qc opt(calcall, ts, noeigentest, cartesian,maxcycle=1
 00)\\Gaussian input prepared by ASE\\0,2\C,0.7837334238,-0.7927957909,
 -0.542018329\C,-0.1495117203,0.334017283,-0.5968280284\H,1.7465336046,
 -0.5251554094,-0.9920111632\H,0.3844796149,-1.6663955156,-1.0700155868
 \H,0.9355463897,-1.0338938778,0.5143305949\C,-0.9232084701,1.262612018
 3,-0.607728532\H,-1.5879207173,2.0897252569,-0.640908062\O,-0.12388321
 16,0.2955014414,2.1019290799\H,-1.0657709137,0.0363845941,1.8332500264
 \\Version=ES64L-G09RevD.01\State=2-A\HF=-191.3327578\S2=0.751589\S2-1=
 0.\S2A=0.750001\RMSD=0.000e+00\RMSF=2.570e-06\ZeroPoint=0.0662488\Ther
 mal=0.0722234\Dipole=-0.4501134,-0.3603672,-0.2162886\DipoleDeriv=0.02
 96352,0.0381683,-0.0150707,0.0261858,0.0404693,0.0358938,-0.0135357,0.
 0347652,-0.0130594,0.0586595,-0.1392101,-0.1752154,-0.1237856,0.057837
 5,0.1933513,-0.0067568,0.0229821,-0.1851096,-0.0572027,-0.0033884,0.07
 32827,-0.0053311,0.0517356,0.0135666,0.0746781,0.013336,0.0838955,0.04
 58171,-0.0248147,-0.0339859,-0.0141713,-0.05723,-0.0803151,-0.0270332,
 -0.0782103,0.0654077,0.1083701,-0.000736,-0.0470348,0.0016412,0.078492
 8,0.0863564,-0.0487686,0.056095,0.0646969,-0.3754953,0.1008426,0.12816
 97,0.0716744,-0.3520303,-0.1440657,0.022066,-0.0107688,-0.3775501,0.22
 17649,0.0053428,0.0012723,0.0142201,0.2150561,-0.0057146,-0.0039687,0.
 0065671,0.2249926,-0.0153874,0.1118757,0.1991947,0.1136113,-0.3053336,
 -0.0869854,0.1100716,-0.0168055,-0.1919492,-0.0161614,-0.0880802,-0.13
 06124,-0.0840448,0.2710025,-0.0120874,-0.1067528,-0.0279608,0.3286757\
 Polar=31.2259592,-12.2339868,33.0708228,0.4360236,-1.4134877,28.713983
 8\PG=C01 [X(C3H5O1)]\NImag=1\\0.51777760,0.03353988,0.50652193,-0.0096
 0235,0.01332967,0.54940227,-0.14359764,0.08968710,-0.00292954,0.641045
 33,0.08958726,-0.17958822,0.00327558,-0.65180258,0.88693926,-0.0040905
 5,0.00447424,-0.06470418,0.01060527,-0.01540007,0.09597073,-0.24476833
 ,-0.05920328,0.09422077,-0.02513024,0.00167825,0.00796183,0.27379209,-
 0.05937391,-0.06418728,0.02855282,0.03170987,0.00439081,-0.01433114,0.
 05993494,0.07263939,0.09475039,0.02847850,-0.09073938,-0.00407206,-0.0
 0292367,-0.00023624,-0.10505524,-0.03053781,0.09640665,-0.08396294,-0.
 07749077,-0.04843404,0.00774091,0.02446035,0.01469790,-0.01118937,-0.0
 2431997,-0.01638352,0.09279169,-0.07739748,-0.20796945,-0.09908385,-0.
 00402938,-0.02939785,-0.01218854,-0.00369589,-0.00695440,-0.00392338,0
 .08086144,0.23473983,-0.04845334,-0.09933371,-0.10810725,0.00406641,0.
 00360954,0.00029756,0.00520390,0.01297452,0.00668894,0.05247680,0.1110
 9166,0.11517973,-0.05285372,0.00427243,-0.03490280,-0.00872255,0.01060
 325,-0.02509096,0.00566453,-0.00727752,0.03078007,-0.00346524,0.003494
 34,-0.01277081,0.06149051,0.00455883,-0.05938078,0.05540070,0.00910899
 ,-0.01432515,0.03011482,0.00114373,-0.00338510,0.00853547,-0.00355943,
 0.00795618,-0.02782162,-0.01145909,0.07043595,-0.03572165,0.05735029,-
 0.29394172,-0.00531719,0.00613117,-0.00001581,-0.00186753,0.00177838,-
 0.01159594,-0.00091598,0.00326008,-0.01317179,0.04095022,-0.06481479,0
 .32337375,0.00351632,0.00316591,-0.00003098,-0.47540659,0.52750184,-0.
 00534493,0.00112905,0.00023105,-0.00008435,-0.00135126,0.00044174,-0.0
 0130595,-0.00051027,0.00172125,0.00177722,0.65463471,0.00374669,0.0035
 2624,0.00041330,0.52854196,-0.67428970,0.00620078,-0.00018209,-0.00182
 506,0.00115553,0.00053196,0.00114794,0.00028166,0.00164125,-0.00107435
 ,-0.00210660,-0.72940700,0.94081316,0.00023116,0.00005534,0.00692322,-
 0.00978250,0.01179775,-0.03487956,-0.00000179,0.00083256,0.00053746,-0
 .00108876,0.00021951,0.00050317,0.00141166,-0.00152902,-0.00055605,0.0
 1680036,-0.02098131,0.05325171,0.00361455,0.00256259,-0.00016547,0.005
 05685,-0.00170830,-0.00010026,0.00049047,-0.00077431,0.00016625,-0.000
 61512,0.00058435,-0.00011670,-0.00006419,0.00006980,-0.00001765,-0.181
 81234,0.19493326,-0.00737773,0.17314093,0.00249902,0.00248824,-0.00001
 915,-0.00328557,0.00698127,0.00037612,0.00041624,-0.00061809,0.0001312
 8,-0.00049141,0.00045081,-0.00010794,0.00000423,0.00001764,0.00001966,
 0.19639399,-0.26795049,0.00927175,-0.19562340,0.25875025,-0.00038115,0
 .00027645,0.00517975,0.00143105,-0.00148048,0.00320014,-0.00026422,0.0
 0048909,0.00000798,-0.00044924,0.00040680,-0.00004970,0.00076774,-0.00
 082103,-0.00003029,-0.00854979,0.01066681,-0.02429226,0.00751080,-0.00
 981784,0.01588282,0.00015693,0.00259226,0.00128412,-0.00065366,-0.0009
 0982,0.00184154,-0.00002382,-0.00012973,0.00029962,-0.00001405,-0.0001
 9079,0.00074308,-0.00042393,-0.00067552,0.00143868,-0.00067291,0.00020
 121,0.00119785,0.00006342,0.00010668,-0.00004932,0.34109346,0.00354651
 ,-0.00135274,-0.00132758,0.00018023,-0.00090701,0.00051973,-0.00016706
 ,0.00013768,-0.00120458,-0.00014426,0.00016345,-0.00047940,-0.00234166
 ,-0.00123195,-0.00217829,-0.00044108,0.00039941,0.00033338,0.00001833,
 0.00006812,-0.00037771,0.09129588,0.02993591,0.00339769,-0.00407341,-0
 .00388434,0.00548292,-0.00620880,0.00461657,-0.00008499,0.00010873,-0.
 00123709,0.00009143,0.00014448,-0.00132358,-0.00145303,0.00061281,-0.0
 0438742,-0.00354196,0.00469963,-0.00022436,0.00016869,-0.00006559,0.00
 009463,0.09133501,0.03252612,0.03251374,0.00011722,0.00087388,0.000560
 28,-0.00033241,0.00058974,-0.00047985,0.00003563,-0.00000043,-0.000401
 15,0.00006538,-0.00006834,0.00015661,-0.00111513,-0.00090857,-0.000326
 13,0.00047330,-0.00000725,-0.00139024,0.00012543,-0.00001979,-0.000015
 88,-0.33952543,-0.09194689,-0.09539575,0.34015601,-0.00070680,-0.00005
 793,-0.00054150,-0.00011063,0.00019659,0.00023407,0.00007515,-0.000197
 95,0.00028867,0.00015208,-0.00013650,-0.00021472,0.00106276,0.00098756
 ,0.00056011,0.00039229,-0.00074715,0.00000004,-0.00006232,-0.00018776,
 0.00065790,-0.09229018,-0.02721287,-0.02774396,0.09148766,0.02735600,-
 0.00013020,-0.00055737,-0.00012837,0.00051565,0.00119898,-0.00424920,-
 0.00011275,0.00013285,0.00016763,0.00000541,0.00007325,-0.00001708,0.0
 0030792,0.00032266,0.00032527,0.00028040,-0.00032981,-0.00126333,-0.00
 006793,0.00021172,0.00000693,-0.09809058,-0.02781167,-0.02616815,0.097
 29210,0.02675939,0.03132629\\-0.00000004,-0.00000064,0.00000284,0.0000
 0162,0.00000014,0.00000106,0.00000194,-0.00000069,0.00000047,-0.000000
 49,-0.00000248,0.00000004,-0.00000154,0.00000049,-0.00000051,0.0000011
 1,-0.00000005,-0.00000329,0.00000092,0.00000065,-0.00000177,0.00000562
 ,0.00000351,0.00000243,-0.00000914,-0.00000094,-0.00000127\\\@


 CONFIDENCE IS WHAT YOU FEEL BEFORE YOU FULLY
 COMPREHEND THE SITUATION.
 Job cpu time:       0 days  0 hours  1 minutes 43.6 seconds.
 File lengths (MBytes):  RWF=      9 Int=      0 D2E=      0 Chk=      1 Scr=      1
 Normal termination of Gaussian 09 at Fri Jan  8 03:28:35 2021.
