9
Properties=species:S:1:pos:R:3:momenta:R:3:forces:R:3 pbc="F F F"
C        0.79394703      -0.78044209      -0.56990253      -0.82525085       0.04678503      -1.42082784      -0.00289244       0.03145347      -0.02572704
C       -0.13969147       0.30670924      -0.58065202       0.33631079      -1.63645196      -0.74907624       0.76582828      -0.87858591       0.28849974
H        1.79132022      -0.46747388      -0.92387112      -0.13879474      -0.35541839      -0.08940637       0.01226363      -0.01745472       0.00773269
H        0.45930488      -1.61424981      -1.21081536      -0.06878917      -0.44021503      -0.15584497      -0.01036620       0.01620154       0.04551369
H        0.92275297      -1.18624990       0.45410589       0.22135878       0.20355271       0.22992459      -0.02528274      -0.00555410      -0.02653157
C       -0.92652362       1.22108755      -0.58238167      -0.07898514      -0.93300250       1.30724533      -0.68754444       0.75421434       0.54148034
H       -1.59633892       2.00443003      -0.60370386      -0.06872898      -0.11648879       0.14010102       0.01977911       0.01019260      -0.01921048
O       -0.33123169      -0.11172254       1.99643441      -1.09546821      -2.02065712      -0.75620846      -0.06775881       0.11022979      -0.84253738
H       -0.97353939       0.62791139       2.02078626       0.49492863       0.70551181       0.08495182      -0.00402639      -0.02069701       0.03078001
