9
Properties=species:S:1:pos:R:3 energy=-5226.4400202234965 pbc="F F F"
C        0.11106393       0.62597573      -1.12552913
C       -0.22851673      -0.30303312      -0.08498221
H       -0.35663169       0.35231326      -2.08713332
H        1.20598219       0.65753367      -1.28661807
H       -0.20620699       1.65437911      -0.88002604
C       -0.65566811      -1.16450661       0.70255862
H       -1.06323755      -1.91732371       1.28196099
O        0.74430418      -0.29944668       1.42949821
H        0.44891078       0.39410838       2.05027096
