9
Properties=species:S:1:pos:R:3 energy=-725.7970563993342 pbc="F F F"
C        0.11541155       0.51785947      -1.00363771
C        0.31513667       0.24167318       0.45963415
H       -0.56228771      -0.18017832      -1.50401693
H        1.07897024       0.48978681      -1.53544200
H       -0.27968189       1.53456980      -1.15280575
C       -0.39721142      -0.89734406       1.03864394
H       -1.04349887      -1.52923814       0.46804990
O        1.04292191       0.93703404       1.14644587
H       -0.26976048      -1.11416278       2.08312854
9
Properties=species:S:1:pos:R:3 energy=-725.7970553101121 pbc="F F F"
C        0.11541235       0.51786121      -1.00363962
C        0.31513307       0.24166968       0.45963088
H       -0.56228649      -0.18017482      -1.50402220
H        1.07897218       0.48978920      -1.53544201
H       -0.27968009       1.53457227      -1.15280572
C       -0.39721419      -0.89734702       1.03864217
H       -1.04350294      -1.52924587       0.46805658
O        1.04291609       0.93702447       1.14645133
H       -0.26974998      -1.11414913       2.08312860
9
Properties=species:S:1:pos:R:3 energy=-725.7970542168564 pbc="F F F"
C        0.11541316       0.51786296      -1.00364154
C        0.31512946       0.24166618       0.45962761
H       -0.56228526      -0.18017130      -1.50402747
H        1.07897412       0.48979159      -1.53544202
H       -0.27967829       1.53457475      -1.15280570
C       -0.39721697      -0.89734998       1.03864040
H       -1.04350702      -1.52925362       0.46806328
O        1.04291027       0.93701488       1.14645679
H       -0.26973945      -1.11413546       2.08312866
9
Properties=species:S:1:pos:R:3 energy=-725.7970531195606 pbc="F F F"
C        0.11541396       0.51786471      -1.00364346
C        0.31512584       0.24166267       0.45962433
H       -0.56228403      -0.18016779      -1.50403276
H        1.07897606       0.48979399      -1.53544204
H       -0.27967649       1.53457724      -1.15280567
C       -0.39721975      -0.89735294       1.03863863
H       -1.04351111      -1.52926138       0.46806999
O        1.04290443       0.93700527       1.14646226
H       -0.26972891      -1.11412177       2.08312871
9
Properties=species:S:1:pos:R:3 energy=-725.7970520182067 pbc="F F F"
C        0.11541477       0.51786647      -1.00364538
C        0.31512221       0.24165915       0.45962104
H       -0.56228280      -0.18016426      -1.50403805
H        1.07897800       0.48979639      -1.53544205
H       -0.27967468       1.53457973      -1.15280565
C       -0.39722253      -0.89735591       1.03863685
H       -1.04351521      -1.52926916       0.46807672
O        1.04289858       0.93699564       1.14646774
H       -0.26971835      -1.11410805       2.08312877
9
Properties=species:S:1:pos:R:3 energy=-725.7970509127797 pbc="F F F"
C        0.11541558       0.51786822      -1.00364730
C        0.31511858       0.24165563       0.45961775
H       -0.56228157      -0.18016073      -1.50404335
H        1.07897995       0.48979880      -1.53544206
H       -0.27967287       1.53458222      -1.15280562
C       -0.39722533      -0.89735889       1.03863507
H       -1.04351931      -1.52927695       0.46808345
O        1.04289272       0.93698600       1.14647323
H       -0.26970777      -1.11409430       2.08312883
9
Properties=species:S:1:pos:R:3 energy=-725.7970498032662 pbc="F F F"
C        0.11541639       0.51786998      -1.00364923
C        0.31511494       0.24165210       0.45961445
H       -0.56228033      -0.18015719      -1.50404867
H        1.07898190       0.48980121      -1.53544208
H       -0.27967106       1.53458472      -1.15280560
C       -0.39722812      -0.89736187       1.03863329
H       -1.04352342      -1.52928475       0.46809020
O        1.04288685       0.93697633       1.14647873
H       -0.26969716      -1.11408053       2.08312889
9
Properties=species:S:1:pos:R:3 energy=-725.7970486896506 pbc="F F F"
C        0.11541721       0.51787175      -1.00365116
C        0.31511129       0.24164856       0.45961115
H       -0.56227909      -0.18015364      -1.50405399
H        1.07898386       0.48980362      -1.53544209
H       -0.27966924       1.53458722      -1.15280557
C       -0.39723092      -0.89736486       1.03863150
H       -1.04352754      -1.52929257       0.46809697
O        1.04288097       0.93696665       1.14648425
H       -0.26968654      -1.11406673       2.08312895
9
Properties=species:S:1:pos:R:3 energy=-725.797047571914 pbc="F F F"
C        0.11541802       0.51787351      -1.00365310
C        0.31510764       0.24164502       0.45960784
H       -0.56227785      -0.18015009      -1.50405932
H        1.07898582       0.48980604      -1.53544210
H       -0.27966742       1.53458973      -1.15280554
C       -0.39723373      -0.89736785       1.03862971
H       -1.04353166      -1.52930040       0.46810374
O        1.04287508       0.93695695       1.14648977
H       -0.26967590      -1.11405291       2.08312900
9
Properties=species:S:1:pos:R:3 energy=-725.7970464500428 pbc="F F F"
C        0.11541884       0.51787528      -1.00365503
C        0.31510398       0.24164147       0.45960452
H       -0.56227661      -0.18014653      -1.50406467
H        1.07898778       0.48980847      -1.53544212
H       -0.27966560       1.53459224      -1.15280552
C       -0.39723654      -0.89737085       1.03862792
H       -1.04353579      -1.52930825       0.46811053
O        1.04286918       0.93694724       1.14649530
H       -0.26966524      -1.11403907       2.08312906
9
Properties=species:S:1:pos:R:3 energy=-725.7970453240255 pbc="F F F"
C        0.11541965       0.51787706      -1.00365698
C        0.31510032       0.24163791       0.45960120
H       -0.56227536      -0.18014296      -1.50407002
H        1.07898975       0.48981090      -1.53544213
H       -0.27966377       1.53459476      -1.15280549
C       -0.39723936      -0.89737386       1.03862613
H       -1.04353994      -1.52931611       0.46811733
O        1.04286327       0.93693750       1.14650084
H       -0.26965456      -1.11402519       2.08312912
9
Properties=species:S:1:pos:R:3 energy=-725.7970441938407 pbc="F F F"
C        0.11542047       0.51787883      -1.00365892
C        0.31509664       0.24163434       0.45959787
H       -0.56227411      -0.18013939      -1.50407538
H        1.07899172       0.48981333      -1.53544214
H       -0.27966194       1.53459728      -1.15280547
C       -0.39724218      -0.89737686       1.03862433
H       -1.04354408      -1.52932399       0.46812414
O        1.04285734       0.93692775       1.14650639
H       -0.26964387      -1.11401129       2.08312918
9
Properties=species:S:1:pos:R:3 energy=-725.7970430594821 pbc="F F F"
C        0.11542129       0.51788061      -1.00366087
C        0.31509296       0.24163077       0.45959454
H       -0.56227286      -0.18013581      -1.50408076
H        1.07899369       0.48981577      -1.53544216
H       -0.27966011       1.53459980      -1.15280544
C       -0.39724501      -0.89737988       1.03862252
H       -1.04354824      -1.52933188       0.46813097
O        1.04285141       0.93691798       1.14651196
H       -0.26963315      -1.11399737       2.08312923
9
Properties=species:S:1:pos:R:3 energy=-725.7970419209253 pbc="F F F"
C        0.11542212       0.51788240      -1.00366282
C        0.31508928       0.24162720       0.45959120
H       -0.56227161      -0.18013223      -1.50408614
H        1.07899567       0.48981821      -1.53544217
H       -0.27965827       1.53460233      -1.15280541
C       -0.39724784      -0.89738290       1.03862072
H       -1.04355240      -1.52933979       0.46813781
O        1.04284546       0.93690819       1.14651753
H       -0.26962241      -1.11398342       2.08312929
9
Properties=species:S:1:pos:R:3 energy=-725.7970407781572 pbc="F F F"
C        0.11542294       0.51788418      -1.00366478
C        0.31508559       0.24162362       0.45958785
H       -0.56227035      -0.18012863      -1.50409153
H        1.07899765       0.48982066      -1.53544218
H       -0.27965643       1.53460487      -1.15280539
C       -0.39725068      -0.89738593       1.03861891
H       -1.04355657      -1.52934771       0.46814466
O        1.04283950       0.93689839       1.14652311
H       -0.26961165      -1.11396944       2.08312935
9
Properties=species:S:1:pos:R:3 energy=-725.7970396311648 pbc="F F F"
C        0.11542376       0.51788597      -1.00366674
C        0.31508189       0.24162003       0.45958450
H       -0.56226910      -0.18012503      -1.50409693
H        1.07899964       0.48982311      -1.53544220
H       -0.27965459       1.53460741      -1.15280536
C       -0.39725352      -0.89738896       1.03861710
H       -1.04356075      -1.52935565       0.46815152
O        1.04283354       0.93688856       1.14652871
H       -0.26960087      -1.11395544       2.08312940
9
Properties=species:S:1:pos:R:3 energy=-725.7970384799277 pbc="F F F"
C        0.11542459       0.51788777      -1.00366870
C        0.31507818       0.24161643       0.45958114
H       -0.56226784      -0.18012143      -1.50410235
H        1.07900163       0.48982557      -1.53544221
H       -0.27965274       1.53460995      -1.15280533
C       -0.39725637      -0.89739200       1.03861528
H       -1.04356494      -1.52936360       0.46815840
O        1.04282756       0.93687872       1.14653431
H       -0.26959007      -1.11394141       2.08312946
9
Properties=species:S:1:pos:R:3 energy=-725.7970373244355 pbc="F F F"
C        0.11542542       0.51788956      -1.00367067
C        0.31507446       0.24161283       0.45957778
H       -0.56226657      -0.18011782      -1.50410777
H        1.07900362       0.48982803      -1.53544222
H       -0.27965089       1.53461250      -1.15280531
C       -0.39725922      -0.89739504       1.03861346
H       -1.04356913      -1.52937156       0.46816529
O        1.04282157       0.93686886       1.14653992
H       -0.26957926      -1.11392736       2.08312952
9
Properties=species:S:1:pos:R:3 energy=-725.797036164666 pbc="F F F"
C        0.11542625       0.51789136      -1.00367264
C        0.31507074       0.24160922       0.45957440
H       -0.56226531      -0.18011420      -1.50411320
H        1.07900562       0.48983049      -1.53544224
H       -0.27964903       1.53461506      -1.15280528
C       -0.39726208      -0.89739809       1.03861164
H       -1.04357333      -1.52937954       0.46817219
O        1.04281557       0.93685898       1.14654555
H       -0.26956842      -1.11391328       2.08312957
9
Properties=species:S:1:pos:R:3 energy=-725.7970350006153 pbc="F F F"
C        0.11542708       0.51789317      -1.00367462
C        0.31506702       0.24160560       0.45957103
H       -0.56226404      -0.18011057      -1.50411864
H        1.07900762       0.48983296      -1.53544225
H       -0.27964718       1.53461762      -1.15280525
C       -0.39726495      -0.89740114       1.03860982
H       -1.04357754      -1.52938754       0.46817911
O        1.04280955       0.93684908       1.14655118
H       -0.26955756      -1.11389918       2.08312963
9
Properties=species:S:1:pos:R:3 energy=-725.7970338322515 pbc="F F F"
C        0.11542791       0.51789497      -1.00367659
C        0.31506328       0.24160198       0.45956764
H       -0.56226277      -0.18010694      -1.50412410
H        1.07900962       0.48983544      -1.53544226
H       -0.27964532       1.53462018      -1.15280523
C       -0.39726782      -0.89740421       1.03860799
H       -1.04358176      -1.52939555       0.46818604
O        1.04280353       0.93683917       1.14655683
H       -0.26954668      -1.11388505       2.08312968
9
Properties=species:S:1:pos:R:3 energy=-725.7970326595687 pbc="F F F"
C        0.11542875       0.51789678      -1.00367858
C        0.31505954       0.24159835       0.45956425
H       -0.56226150      -0.18010330      -1.50412956
H        1.07901163       0.48983791      -1.53544228
H       -0.27964345       1.53462275      -1.15280520
C       -0.39727069      -0.89740727       1.03860616
H       -1.04358598      -1.52940357       0.46819298
O        1.04279749       0.93682924       1.14656248
H       -0.26953578      -1.11387089       2.08312974
9
Properties=species:S:1:pos:R:3 energy=-725.7970314825504 pbc="F F F"
C        0.11542958       0.51789860      -1.00368056
C        0.31505579       0.24159471       0.45956086
H       -0.56226023      -0.18009965      -1.50413503
H        1.07901364       0.48984040      -1.53544229
H       -0.27964158       1.53462532      -1.15280517
C       -0.39727357      -0.89741034       1.03860432
H       -1.04359022      -1.52941161       0.46819994
O        1.04279145       0.93681928       1.14656815
H       -0.26952487      -1.11385670       2.08312980
9
Properties=species:S:1:pos:R:3 energy=-725.7970303011792 pbc="F F F"
C        0.11543042       0.51790041      -1.00368255
C        0.31505204       0.24159107       0.45955745
H       -0.56225895      -0.18009600      -1.50414051
H        1.07901565       0.48984289      -1.53544230
H       -0.27963971       1.53462790      -1.15280514
C       -0.39727645      -0.89741342       1.03860248
H       -1.04359446      -1.52941966       0.46820690
O        1.04278539       0.93680931       1.14657382
H       -0.26951393      -1.11384249       2.08312985
9
Properties=species:S:1:pos:R:3 energy=-725.7970291154408 pbc="F F F"
C        0.11543126       0.51790223      -1.00368454
C        0.31504828       0.24158742       0.45955405
H       -0.56225767      -0.18009234      -1.50414601
H        1.07901767       0.48984538      -1.53544232
H       -0.27963784       1.53463048      -1.15280512
C       -0.39727935      -0.89741650       1.03860064
H       -1.04359870      -1.52942773       0.46821388
O        1.04277932       0.93679932       1.14657951
H       -0.26950297      -1.11382826       2.08312991
9
Properties=species:S:1:pos:R:3 energy=-725.7970279253168 pbc="F F F"
C        0.11543210       0.51790406      -1.00368654
C        0.31504451       0.24158376       0.45955063
H       -0.56225639      -0.18008868      -1.50415151
H        1.07901969       0.48984787      -1.53544233
H       -0.27963596       1.53463307      -1.15280509
C       -0.39728224      -0.89741959       1.03859880
H       -1.04360296      -1.52943581       0.46822088
O        1.04277324       0.93678932       1.14658520
H       -0.26949199      -1.11381400       2.08312996
9
Properties=species:S:1:pos:R:3 energy=-725.7970267307891 pbc="F F F"
C        0.11543294       0.51790588      -1.00368854
C        0.31504073       0.24158010       0.45954721
H       -0.56225511      -0.18008500      -1.50415702
H        1.07902172       0.48985038      -1.53544234
H       -0.27963408       1.53463566      -1.15280506
C       -0.39728514      -0.89742269       1.03859695
H       -1.04360722      -1.52944391       0.46822789
O        1.04276715       0.93677929       1.14659091
H       -0.26948099      -1.11379971       2.08313002
9
Properties=species:S:1:pos:R:3 energy=-725.7970255318446 pbc="F F F"
C        0.11543379       0.51790771      -1.00369054
C        0.31503695       0.24157643       0.45954378
H       -0.56225382      -0.18008132      -1.50416255
H        1.07902375       0.48985288      -1.53544236
H       -0.27963219       1.53463826      -1.15280503
C       -0.39728805      -0.89742579       1.03859510
H       -1.04361150      -1.52945203       0.46823491
O        1.04276105       0.93676925       1.14659663
H       -0.26946998      -1.11378539       2.08313007
9
Properties=species:S:1:pos:R:3 energy=-725.7970243284622 pbc="F F F"
C        0.11543463       0.51790955      -1.00369255
C        0.31503316       0.24157275       0.45954035
H       -0.56225254      -0.18007764      -1.50416808
H        1.07902578       0.48985539      -1.53544237
H       -0.27963030       1.53464086      -1.15280501
C       -0.39729096      -0.89742889       1.03859324
H       -1.04361577      -1.52946016       0.46824194
O        1.04275494       0.93675918       1.14660235
H       -0.26945894      -1.11377105       2.08313012
9
Properties=species:S:1:pos:R:3 energy=-725.7970231206342 pbc="F F F"
C        0.11543548       0.51791138      -1.00369456
C        0.31502936       0.24156907       0.45953691
H       -0.56225125      -0.18007394      -1.50417363
H        1.07902782       0.48985791      -1.53544238
H       -0.27962841       1.53464347      -1.15280498
C       -0.39729388      -0.89743200       1.03859138
H       -1.04362006      -1.52946830       0.46824899
O        1.04274881       0.93674910       1.14660809
H       -0.26944788      -1.11375668       2.08313018
9
Properties=species:S:1:pos:R:3 energy=-725.797021908339 pbc="F F F"
C        0.11543633       0.51791322      -1.00369658
C        0.31502556       0.24156538       0.45953346
H       -0.56224995      -0.18007024      -1.50417918
H        1.07902986       0.48986043      -1.53544240
H       -0.27962651       1.53464608      -1.15280495
C       -0.39729680      -0.89743512       1.03858952
H       -1.04362436      -1.52947646       0.46825605
O        1.04274267       0.93673900       1.14661384
H       -0.26943680      -1.11374229       2.08313023
9
Properties=species:S:1:pos:R:3 energy=-725.7970206915585 pbc="F F F"
C        0.11543718       0.51791507      -1.00369859
C        0.31502175       0.24156168       0.45953001
H       -0.56224866      -0.18006653      -1.50418474
H        1.07903191       0.48986295      -1.53544241
H       -0.27962461       1.53464869      -1.15280492
C       -0.39729973      -0.89743825       1.03858766
H       -1.04362866      -1.52948463       0.46826312
O        1.04273653       0.93672888       1.14661960
H       -0.26942570      -1.11372787       2.08313029
9
Properties=species:S:1:pos:R:3 energy=-725.7970194702763 pbc="F F F"
C        0.11543803       0.51791691      -1.00370062
C        0.31501793       0.24155798       0.45952655
H       -0.56224736      -0.18006282      -1.50419032
H        1.07903395       0.48986548      -1.53544242
H       -0.27962271       1.53465132      -1.15280490
C       -0.39730266      -0.89744137       1.03858579
H       -1.04363297      -1.52949282       0.46827021
O        1.04273037       0.93671874       1.14662537
H       -0.26941458      -1.11371342       2.08313034
9
Properties=species:S:1:pos:R:3 energy=-725.7970182444814 pbc="F F F"
C        0.11543888       0.51791876      -1.00370264
C        0.31501410       0.24155426       0.45952308
H       -0.56224606      -0.18005910      -1.50419590
H        1.07903601       0.48986802      -1.53544244
H       -0.27962080       1.53465394      -1.15280487
C       -0.39730560      -0.89744451       1.03858392
H       -1.04363729      -1.52950102       0.46827731
O        1.04272420       0.93670859       1.14663115
H       -0.26940344      -1.11369894       2.08313039
9
Properties=species:S:1:pos:R:3 energy=-725.7970170141548 pbc="F F F"
C        0.11543974       0.51792062      -1.00370467
C        0.31501027       0.24155055       0.45951961
H       -0.56224476      -0.18005537      -1.50420150
H        1.07903806       0.48987056      -1.53544245
H       -0.27961889       1.53465657      -1.15280484
C       -0.39730854      -0.89744765       1.03858204
H       -1.04364161      -1.52950924       0.46828442
O        1.04271801       0.93669841       1.14663694
H       -0.26939228      -1.11368444       2.08313045
9
Properties=species:S:1:pos:R:3 energy=-725.7970157792674 pbc="F F F"
C        0.11544059       0.51792248      -1.00370671
C        0.31500643       0.24154682       0.45951613
H       -0.56224345      -0.18005164      -1.50420710
H        1.07904012       0.48987310      -1.53544246
H       -0.27961698       1.53465921      -1.15280481
C       -0.39731149      -0.89745080       1.03858016
H       -1.04364595      -1.52951748       0.46829154
O        1.04271182       0.93668822       1.14664274
H       -0.26938109      -1.11366991       2.08313050
9
Properties=species:S:1:pos:R:3 energy=-725.7970145398198 pbc="F F F"
C        0.11544145       0.51792434      -1.00370874
C        0.31500259       0.24154309       0.45951264
H       -0.56224215      -0.18004789      -1.50421272
H        1.07904219       0.48987565      -1.53544247
H       -0.27961506       1.53466185      -1.15280478
C       -0.39731445      -0.89745395       1.03857828
H       -1.04365029      -1.52952573       0.46829868
O        1.04270562       0.93667801       1.14664856
H       -0.26936989      -1.11365536       2.08313055
9
Properties=species:S:1:pos:R:3 energy=-725.7970132957893 pbc="F F F"
C        0.11544231       0.51792620      -1.00371078
C        0.31499873       0.24153935       0.45950915
H       -0.56224084      -0.18004415      -1.50421835
H        1.07904425       0.48987820      -1.53544249
H       -0.27961314       1.53466449      -1.15280475
C       -0.39731741      -0.89745711       1.03857640
H       -1.04365464      -1.52953399       0.46830584
O        1.04269940       0.93666778       1.14665438
H       -0.26935867      -1.11364078       2.08313061
9
Properties=species:S:1:pos:R:3 energy=-725.7970120471558 pbc="F F F"
C        0.11544317       0.51792807      -1.00371283
C        0.31499487       0.24153561       0.45950565
H       -0.56223952      -0.18004039      -1.50422398
H        1.07904633       0.48988076      -1.53544250
H       -0.27961122       1.53466714      -1.15280472
C       -0.39732038      -0.89746027       1.03857451
H       -1.04365900      -1.52954227       0.46831300
O        1.04269317       0.93665752       1.14666021
H       -0.26934742      -1.11362617       2.08313066
9
Properties=species:S:1:pos:R:3 energy=-725.7970107939036 pbc="F F F"
C        0.11544403       0.51792994      -1.00371488
C        0.31499101       0.24153185       0.45950215
H       -0.56223821      -0.18003663      -1.50422963
H        1.07904840       0.48988332      -1.53544251
H       -0.27960929       1.53466980      -1.15280470
C       -0.39732335      -0.89746344       1.03857261
H       -1.04366337      -1.52955057       0.46832018
O        1.04268693       0.93664726       1.14666606
H       -0.26933616      -1.11361153       2.08313071
9
Properties=species:S:1:pos:R:3 energy=-725.7970095360179 pbc="F F F"
C        0.11544490       0.51793181      -1.00371693
C        0.31498713       0.24152809       0.45949864
H       -0.56223689      -0.18003286      -1.50423529
H        1.07905048       0.48988589      -1.53544253
H       -0.27960736       1.53467246      -1.15280467
C       -0.39732632      -0.89746662       1.03857072
H       -1.04366774      -1.52955888       0.46832738
O        1.04268068       0.93663697       1.14667191
H       -0.26932487      -1.11359687       2.08313076
9
Properties=species:S:1:pos:R:3 energy=-725.7970082734807 pbc="F F F"
C        0.11544576       0.51793369      -1.00371898
C        0.31498325       0.24152433       0.45949512
H       -0.56223557      -0.18002908      -1.50424096
H        1.07905256       0.48988846      -1.53544254
H       -0.27960542       1.53467512      -1.15280464
C       -0.39732931      -0.89746980       1.03856882
H       -1.04367212      -1.52956721       0.46833458
O        1.04267442       0.93662666       1.14667778
H       -0.26931357      -1.11358218       2.08313082
9
Properties=species:S:1:pos:R:3 energy=-725.7970070062713 pbc="F F F"
C        0.11544663       0.51793557      -1.00372104
C        0.31497936       0.24152056       0.45949159
H       -0.56223425      -0.18002530      -1.50424663
H        1.07905465       0.48989103      -1.53544255
H       -0.27960349       1.53467779      -1.15280461
C       -0.39733229      -0.89747298       1.03856692
H       -1.04367651      -1.52957555       0.46834180
O        1.04266814       0.93661633       1.14668365
H       -0.26930224      -1.11356746       2.08313087
9
Properties=species:S:1:pos:R:3 energy=-725.7970057343723 pbc="F F F"
C        0.11544750       0.51793746      -1.00372311
C        0.31497546       0.24151678       0.45948806
H       -0.56223293      -0.18002151      -1.50425232
H        1.07905674       0.48989361      -1.53544257
H       -0.27960154       1.53468047      -1.15280458
C       -0.39733529      -0.89747618       1.03856501
H       -1.04368091      -1.52958390       0.46834904
O        1.04266186       0.93660599       1.14668954
H       -0.26929089      -1.11355272       2.08313092
9
Properties=species:S:1:pos:R:3 energy=-725.7970044577711 pbc="F F F"
C        0.11544837       0.51793935      -1.00372517
C        0.31497156       0.24151299       0.45948453
H       -0.56223160      -0.18001771      -1.50425802
H        1.07905884       0.48989620      -1.53544258
H       -0.27959960       1.53468315      -1.15280455
C       -0.39733829      -0.89747938       1.03856310
H       -1.04368532      -1.52959228       0.46835629
O        1.04265556       0.93659562       1.14669544
H       -0.26927953      -1.11353794       2.08313097
9
Properties=species:S:1:pos:R:3 energy=-725.7970031764531 pbc="F F F"
C        0.11544924       0.51794124      -1.00372724
C        0.31496765       0.24150919       0.45948098
H       -0.56223027      -0.18001390      -1.50426373
H        1.07906093       0.48989879      -1.53544259
H       -0.27959765       1.53468583      -1.15280452
C       -0.39734129      -0.89748258       1.03856119
H       -1.04368973      -1.52960067       0.46836355
O        1.04264925       0.93658524       1.14670135
H       -0.26926814      -1.11352315       2.08313102
9
Properties=species:S:1:pos:R:3 energy=-725.7970018904009 pbc="F F F"
C        0.11545012       0.51794313      -1.00372932
C        0.31496373       0.24150539       0.45947743
H       -0.56222894      -0.18001009      -1.50426945
H        1.07906304       0.48990139      -1.53544260
H       -0.27959569       1.53468852      -1.15280449
C       -0.39734430      -0.89748579       1.03855927
H       -1.04369415      -1.52960907       0.46837082
O        1.04264293       0.93657484       1.14670727
H       -0.26925673      -1.11350832       2.08313107
9
Properties=species:S:1:pos:R:3 energy=-725.7970005995693 pbc="F F F"
C        0.11545099       0.51794503      -1.00373140
C        0.31495981       0.24150159       0.45947388
H       -0.56222761      -0.18000627      -1.50427518
H        1.07906514       0.48990399      -1.53544262
H       -0.27959374       1.53469122      -1.15280446
C       -0.39734732      -0.89748901       1.03855735
H       -1.04369859      -1.52961749       0.46837811
O        1.04263660       0.93656441       1.14671320
H       -0.26924529      -1.11349347       2.08313112
9
Properties=species:S:1:pos:R:3 energy=-725.7969993039856 pbc="F F F"
C        0.11545187       0.51794693      -1.00373348
C        0.31495587       0.24149777       0.45947031
H       -0.56222627      -0.18000245      -1.50428092
H        1.07906725       0.48990659      -1.53544263
H       -0.27959178       1.53469392      -1.15280443
C       -0.39735034      -0.89749223       1.03855543
H       -1.04370302      -1.52962592       0.46838541
O        1.04263025       0.93655397       1.14671914
H       -0.26923384      -1.11347858       2.08313118
9
Properties=species:S:1:pos:R:3 energy=-725.796998003602 pbc="F F F"
C        0.11545275       0.51794884      -1.00373557
C        0.31495193       0.24149395       0.45946674
H       -0.56222493      -0.17999861      -1.50428668
H        1.07906937       0.48990920      -1.53544264
H       -0.27958981       1.53469662      -1.15280440
C       -0.39735336      -0.89749546       1.03855350
H       -1.04370747      -1.52963437       0.46839273
O        1.04262390       0.93654351       1.14672509
H       -0.26922237      -1.11346368       2.08313123
9
Properties=species:S:1:pos:R:3 energy=-725.7969966984127 pbc="F F F"
C        0.11545363       0.51795075      -1.00373766
C        0.31494799       0.24149012       0.45946317
H       -0.56222359      -0.17999477      -1.50429244
H        1.07907148       0.48991181      -1.53544266
H       -0.27958784       1.53469933      -1.15280437
C       -0.39735640      -0.89749870       1.03855157
H       -1.04371193      -1.52964284       0.46840006
O        1.04261753       0.93653303       1.14673105
H       -0.26921087      -1.11344874       2.08313128
9
Properties=species:S:1:pos:R:3 energy=-725.7969953883947 pbc="F F F"
C        0.11545451       0.51795266      -1.00373975
C        0.31494403       0.24148628       0.45945958
H       -0.56222225      -0.17999092      -1.50429821
H        1.07907361       0.48991443      -1.53544267
H       -0.27958587       1.53470205      -1.15280434
C       -0.39735943      -0.89750194       1.03854964
H       -1.04371639      -1.52965132       0.46840740
O        1.04261115       0.93652253       1.14673703
H       -0.26919936      -1.11343378       2.08313133
9
Properties=species:S:1:pos:R:3 energy=-725.7969940735263 pbc="F F F"
C        0.11545540       0.51795458      -1.00374185
C        0.31494007       0.24148244       0.45945599
H       -0.56222090      -0.17998707      -1.50430400
H        1.07907573       0.48991706      -1.53544268
H       -0.27958390       1.53470477      -1.15280431
C       -0.39736248      -0.89750519       1.03854770
H       -1.04372086      -1.52965982       0.46841476
O        1.04260476       0.93651201       1.14674301
H       -0.26918782      -1.11341878       2.08313138
9
Properties=species:S:1:pos:R:3 energy=-725.7969927537928 pbc="F F F"
C        0.11545628       0.51795650      -1.00374395
C        0.31493610       0.24147859       0.45945240
H       -0.56221955      -0.17998321      -1.50430979
H        1.07907786       0.48991969      -1.53544269
H       -0.27958192       1.53470749      -1.15280428
C       -0.39736553      -0.89750844       1.03854576
H       -1.04372534      -1.52966833       0.46842213