9
Properties=species:S:1:pos:R:3 energy=-724.6500662111376 pbc="F F F"
C       -6.40215500       1.91222100      -1.30283600
C       -6.60457700       1.16323500      -0.00909900
H       -6.97357300       1.45052800      -2.10913400
H       -5.33739900       1.91505500      -1.56151300
H       -6.71944500       2.95338900      -1.17661800
C       -7.36951100       0.09958800       0.11250900
H       -7.70438100      -0.61679900       0.84249500
O       -5.85657600       1.77789000       1.01991900
H       -5.99572400       1.27794100       1.86889400
9
Properties=species:S:1:pos:R:3 energy=-724.7213920137629 pbc="F F F"
C       -6.40194048       1.91367482      -1.29981073
C       -6.60442669       1.17197676      -0.00929607
H       -6.98752118       1.45518869      -2.10295380
H       -5.33860600       1.89772274      -1.57497139
H       -6.70472648       2.96277658      -1.18623752
C       -7.35504683       0.10226529       0.13197773
H       -7.70190214      -0.63086491       0.82247685
O       -5.87070052       1.78126376       1.02482124
H       -5.99847069       1.27904426       1.87861070
9
Properties=species:S:1:pos:R:3 energy=-724.7720350794182 pbc="F F F"
C       -6.40184988       1.91516171      -1.29746647
C       -6.60414586       1.18096822      -0.00873189
H       -7.00187279       1.45993090      -2.09620761
H       -5.34073922       1.87958428      -1.58821570
H       -6.68947075       2.97159752      -1.19620329
C       -7.34051597       0.10522839       0.15036338
H       -7.69801813      -0.64403707       0.80250765
O       -5.88428216       1.78544616       1.03132472
H       -6.00244625       1.27916788       1.88724622
9
Properties=species:S:1:pos:R:3 energy=-724.8069437140817 pbc="F F F"
C       -6.40188503       1.91665718      -1.29574427
C       -6.60372379       1.19018198      -0.00748794
H       -7.01652113       1.46472509      -2.08897481
H       -5.34372074       1.86079874      -1.60119891
H       -6.67379464       2.97984948      -1.20644881
C       -7.32590475       0.10848767       0.16785192
H       -7.69284965      -0.65628009       0.78265436
O       -5.89729668       1.79038768       1.03918435
H       -6.00764458       1.27824026       1.89478109
9
Properties=species:S:1:pos:R:3 energy=-724.8298390741468 pbc="F F F"
C       -6.40204778       1.91813677      -1.29458515
C       -6.60314974       1.19959063      -0.00564569
H       -7.03135951       1.46954173      -2.08133473
H       -5.34747265       1.84152525      -1.61387399
H       -6.65781493       2.98753009      -1.21690755
C       -7.31119952       0.11205349       0.18462933
H       -7.68651742      -0.66755858       0.76298393
O       -5.90971988       1.79603881       1.04815502
H       -6.01405958       1.27618981       1.90119583
9
Properties=species:S:1:pos:R:3 energy=-724.8434186225331 pbc="F F F"
C       -6.40233998       1.91957599      -1.29393017
C       -6.60241297       1.20916676      -0.00328664
H       -7.04628120       1.47435128      -2.07336676
H       -5.35191704       1.82192294      -1.62619392
H       -6.64164843       2.99463701      -1.22751299
C       -7.29638660       0.11593621       0.20088158
H       -7.67914214      -0.67783714       0.74356332
O       -5.92152751       1.80235003       1.05799162
H       -6.02168514       1.27294492       1.90647095
9
Properties=species:S:1:pos:R:3 energy=-724.8495381011047 pbc="F F F"
C       -6.40276347       1.92095038      -1.29372034
C       -6.60150275       1.21888297      -0.00049226
H       -7.06117950       1.47912422      -2.06515024
H       -5.35697598       1.80215093      -1.63811167
H       -6.62541196       3.00116786      -1.23819862
C       -7.28145232       0.12014620       0.21679463
H       -7.67084449      -0.68708038       0.72445948
O       -5.93269536       1.80927184       1.06844905
H       -6.03051517       1.26843399       1.91058698
9
Properties=species:S:1:pos:R:3 energy=-724.8493668271991 pbc="F F F"
C       -6.40332009       1.92223544      -1.29389672
C       -6.60040835       1.22871186       0.00265597
H       -7.07594771       1.48383102      -2.05676453
H       -5.36257157       1.78236836      -1.64958023
H       -6.60922231       3.00712029      -1.24889792
C       -7.26638303       0.12469381       0.23255445
H       -7.66174519      -0.69525290       0.70573936
O       -5.94319920       1.81675471       1.07928220
H       -6.04054357       1.26258541       1.91352442
9
Properties=species:S:1:pos:R:3 energy=-724.8435067469362 pbc="F F F"
C       -6.40401168       1.92340671      -1.29440034
C       -6.59911902       1.23862602       0.00607656
H       -7.09047912       1.48844213      -2.04828900
H       -5.36862588       1.76273435      -1.66055257
H       -6.59319629       3.01249195      -1.25954437
C       -7.25116505       0.12958941       0.24834701
H       -7.65196492      -0.70231932       0.68746994
O       -5.95301482       1.82474914       1.09024597
H       -6.05176422       1.25532760       1.91526381
9
Properties=species:S:1:pos:R:3 energy=-724.8320725167573 pbc="F F F"
C       -6.40484009       1.92443972      -1.29517225
C       -6.59762404       1.24859804       0.00968802
H       -7.10466702       1.49292804      -2.03980300
H       -5.37506100       1.74340803      -1.67098166
H       -6.57745070       3.01728049      -1.27007146
C       -7.23578472       0.13484337       0.26435828
H       -7.64162440      -0.70824423       0.66971815
O       -5.96211797       1.83320560       1.10109525
H       -6.06417104       1.24658894       1.91578566
9
Properties=species:S:1:pos:R:3 energy=-724.814728966748 pbc="F F F"
C       -6.40580717       1.92530997      -1.29615346
C       -6.59591267       1.25860053       0.01340889
H       -7.11840471       1.49725921      -2.03138589
H       -5.38179902       1.72454853      -1.68082050
H       -6.56210236       3.02148353      -1.28041265
C       -7.22022838       0.14046604       0.28077424
H       -7.63084432      -0.71299224       0.65255097
O       -5.97048445       1.84207460       1.11158493
H       -6.07775791       1.23629784       1.91507048
9
Properties=species:S:1:pos:R:3 energy=-724.7906850097351 pbc="F F F"
C       -6.40691475       1.92599301      -1.29728504
C       -6.59397418       1.26860607       0.01715767
H       -7.13158549       1.50140610      -2.02311704
H       -5.38876201       1.70631497      -1.69002204
H       -6.54726806       3.02509873      -1.29050144
C       -7.20448235       0.14646778       0.29778084
H       -7.61974539      -0.71652796       0.63603533
O       -5.97809003       1.85130661       1.12146991
H       -6.09251874       1.22438270       1.91309881
9
Properties=species:S:1:pos:R:3 energy=-724.7586457887714 pbc="F F F"
C       -6.40816468       1.92646435      -1.29850800
C       -6.59179783       1.27858727       0.02085288
H       -7.14410263       1.50533919      -2.01507580
H       -5.39587206       1.68886649      -1.69853927
H       -6.53306462       3.02812373      -1.30027131
C       -7.18853297       0.15285897       0.31556407
H       -7.60844829      -0.71881600       0.62023820
O       -5.98491048       1.86085211       1.13050509
H       -6.10844743       1.21077191       1.90985115
9
Properties=species:S:1:pos:R:3 energy=-724.7167292378257 pbc="F F F"
C       -6.40955881       1.92669951      -1.29976340
C       -6.58937289       1.28851671       0.02441305
H       -7.15584945       1.50902894      -2.00734153
H       -5.40305127       1.67236221      -1.70632517
H       -6.51960883       3.03055617      -1.30965574
C       -7.17236657       0.15964996       0.33430988
H       -7.59707373      -0.71982096       0.60522654
O       -5.99092157       1.87066161       1.13844536
H       -6.12553787       1.19539387       1.90530802
9
Properties=species:S:1:pos:R:3 energy=-724.6624279141537 pbc="F F F"
C       -6.41109261       1.92668374      -1.30100002
C       -6.58668948       1.29837330       0.02777005
H       -7.16673251       1.51244498      -1.99999199
H       -5.41021502       1.65694754      -1.71334380
H       -6.50701034       3.03240735      -1.31859223
C       -7.15598932       0.16683133       0.35417349
H       -7.58574470      -0.71952936       0.59106433
O       -5.99610586       1.88069416       1.14506432
H       -6.14376116       1.17819497       1.89947284
9
Properties=species:S:1:pos:R:3 energy=-724.5929779184883 pbc="F F F"
C       -6.41272599       1.92645666      -1.30220997
C       -6.58374248       1.30817125       0.03093057
H       -7.17673269       1.51555223      -1.99309592
H       -5.41724137       1.64269112      -1.71962122
H       -6.49533864       3.03376498      -1.32704076
C       -7.13951835       0.17428295       0.37513797
H       -7.57459694      -0.71805032       0.57779893
O       -6.00048367       1.89095685       1.15024033
H       -6.16296086       1.15922229       1.89247707
9
Properties=species:S:1:pos:R:3 energy=-724.5054494313896 pbc="F F F"
C       -6.41440644       1.92607680      -1.30340047
C       -6.58052846       1.31793703       0.03392728
H       -7.18585672       1.51831398      -1.98671895
H       -5.42399539       1.62963491      -1.72520507
H       -6.48464931       3.03474335      -1.33496910
C       -7.12310937       0.18184620       0.39712654
H       -7.56377063      -0.71553560       0.56547193
O       -6.00408852       1.90147346       1.15388813
H       -6.18293616       1.13855787       1.88449671
9
Properties=species:S:1:pos:R:3 energy=-724.3968281981206 pbc="F F F"
C       -6.41608149       1.92560271      -1.30457872
C       -6.57704398       1.32769712       0.03679289
H       -7.19411133       1.52069352      -1.98092669
H       -5.43034211       1.61782084      -1.73014301
H       -6.47499788       3.03545676      -1.34234506
C       -7.10691811       0.18936241       0.42006238
H       -7.55340597      -0.71213699       0.55412490
O       -6.00695392       1.91226779       1.15592252
H       -6.20348623       1.11628383       1.87570779
9
Properties=species:S:1:pos:R:3 energy=-724.2643020787311 pbc="F F F"
C       -6.41769862       1.92509294      -1.30575193
C       -6.57328559       1.33747803       0.03956010
H       -7.20150327       1.52265413      -1.97578477
H       -5.43614658       1.60729084      -1.73448268
H       -6.46643990       3.03601953      -1.34913643
C       -7.09110032       0.19667292       0.44386864
H       -7.54364314      -0.70800628       0.54379944
O       -6.00911338       1.92336363       1.15625828
H       -6.22441021       1.09248227       1.86628636
9
Properties=species:S:1:pos:R:3 energy=-724.1057381293598 pbc="F F F"
C       -6.41920535       1.92460603      -1.30692731
C       -6.56924984       1.34730622       0.04226163
H       -7.20803928       1.52415909      -1.97135881
H       -5.44127385       1.59808683      -1.73827175
H       -6.45903092       3.03654595      -1.35531102
C       -7.07581176       0.20361909       0.46846850
H       -7.53462233      -0.70329527       0.53453711
O       -6.01060041       1.93478478       1.15481020
H       -6.24550727       1.06723527       1.85640845
9
Properties=species:S:1:pos:R:3 energy=-723.9204258017733 pbc="F F F"
C       -6.42054972       1.92419985      -1.30811199
C       -6.56493337       1.35720775       0.04493009
H       -7.21372627       1.52517213      -1.96771359
H       -5.44559025       1.59025006      -1.74155759
H       -6.45282570       3.03714915      -1.36083694
C       -7.06120723       0.21004389       0.49378312
H       -7.52648265      -0.69815515       0.52637923
O       -6.01144836       1.94655553       1.15149427
H       -6.26657745       1.04062478       1.84625042
9
Properties=species:S:1:pos:R:3 energy=-723.7104922890603 pbc="F F F"
C       -6.42171205       1.92389126      -1.30930774
C       -6.56033739       1.36718138       0.04759340
H       -7.21858100       1.52568291      -1.96486348
H       -5.44903948       1.58378049      -1.74437198
H       -6.44783212       3.03787179      -1.36570197
C       -7.04738640       0.21588939       0.51961274
H       -7.51929804      -0.69270151       0.51935099
O       -6.01168080       1.95872963       1.14629793
H       -6.28747372       1.01272268       1.83600710
9
Properties=species:S:1:pos:R:3 energy=-723.4830726003715 pbc="F F F"
C       -6.42272265       1.92363356      -1.31050805
C       -6.55547017       1.37718362       0.05027217
H       -7.22263553       1.52572132      -1.96274474
H       -5.45168511       1.57861412      -1.74672242
H       -6.44398542       3.03864721      -1.36992435
C       -7.03436337       0.22125119       0.54557026
H       -7.51304145      -0.68699475       0.51345263
O       -6.01130616       1.97140648       1.13931946
H       -6.30813114       0.98358525       1.82590205
9
Properties=species:S:1:pos:R:3 energy=-723.2521044344476 pbc="F F F"
C       -6.42361618       1.92337459      -1.31170568
C       -6.55034059       1.38716737       0.05298637
H       -7.22592324       1.52532073      -1.96128689
H       -5.45360105       1.57468144      -1.74861437
H       -6.44121457       3.03939939      -1.37352494
C       -7.02214491       0.22623812       0.57125241
H       -7.50767713      -0.68109051       0.50868222
O       -6.01033154       1.98468942       1.13066663
H       -6.32849179       0.95326746       1.81616125
9
Properties=species:S:1:pos:R:3 energy=-723.0398444608924 pbc="F F F"
C       -6.42442728       1.92306217      -1.31289341
C       -6.54495756       1.39708549       0.05575598
H       -7.22847749       1.52451448      -1.96041946
H       -5.45486118       1.57191296      -1.75005325
H       -6.43944853       3.04005229      -1.37652461
C       -7.01073779       0.23095899       0.59625598
H       -7.50316933      -0.67504443       0.50503784
O       -6.00876406       1.99868178       1.12044722
H       -6.34849779       0.92182426       1.80701071
9
Properties=species:S:1:pos:R:3 energy=-723.0468584989916 pbc="F F F"
C       -6.42519056       1.92264414      -1.31406402
C       -6.53932995       1.40689088       0.05860099
H       -7.23033165       1.52333593      -1.96007199
H       -5.45553942       1.57023916      -1.75104449
H       -6.43861629       3.04052989      -1.37894422
C       -7.00014875       0.23552263       0.62017770
H       -7.49948232      -0.66891215       0.50251757
O       -6.00661083       2.01348691       1.10876903
H       -6.36809123       0.88931060       1.79867643
9
Properties=species:S:1:pos:R:3 energy=-723.2229355177709 pbc="F F F"
C       -6.42594069       1.92206834      -1.31521027
C       -6.53346666       1.41653641       0.06154136
H       -7.23151910       1.52181843      -1.96017401
H       -5.45570966       1.56959054      -1.75159355
H       -6.43864681       3.04075614      -1.38080462
C       -6.99038458       0.24003786       0.64261434
H       -7.49658035      -0.66274932       0.50111950
O       -6.00387896       2.02920815       1.09573983
H       -6.38721421       0.85578145       1.79138442
9
Properties=species:S:1:pos:R:3 energy=-723.4396815903854 pbc="F F F"
C       -6.42670968       1.92128673      -1.31632249
C       -6.52738304       1.42597966       0.06459709
H       -7.23208903       1.52000310      -1.96064197
H       -5.45545831       1.56987098      -1.75171337
H       -6.43944976       3.04065934      -1.38214048
C       -6.98144273       0.24460463       0.66319849
H       -7.49440569      -0.65660279       0.50080633
O       -6.00058745       2.04594340       1.08148991
H       -6.40581531       0.82130295       1.78534350
9
Properties=species:S:1:pos:R:3 energy=-723.682159082638 pbc="F F F"
C       -6.42750896       1.92028418      -1.31737161
C       -6.52114572       1.43521550       0.06778819
H       -7.23221635       1.51799265      -1.96128856
H       -5.45497125       1.57077294      -1.75147662
H       -6.44078151       3.04020208      -1.38309609
C       -6.97324695       0.24925249       0.68184735
H       -7.49272598      -0.65044960       0.50125998
O       -5.99684967       2.06374759       1.06632816
H       -6.42389462       0.78603018       1.78062621
9
Properties=species:S:1:pos:R:3 energy=-723.9346082244402 pbc="F F F"
C       -6.42834008       1.91906121      -1.31831928
C       -6.51484580       1.44425659       0.07113472
H       -7.23213591       1.51591917      -1.96187696
H       -5.45448174       1.57188806      -1.75098444
H       -6.44232529       3.03936332      -1.38386803
C       -6.96568581       0.25397741       0.69861382
H       -7.49122558      -0.64423352       0.50202845
O       -5.99282401       2.08265511       1.05064866
H       -6.44147676       0.75016064       1.77724007
9
Properties=species:S:1:pos:R:3 energy=-724.1826252810829 pbc="F F F"
C       -6.42920457       1.91761845      -1.31912713
C       -6.50857455       1.45311570       0.07465672
H       -7.23208291       1.51391494      -1.96217006
H       -5.45422338       1.57280737      -1.75033816
H       -6.44376390       3.03812212      -1.38465317
C       -6.95864768       0.25877518       0.71355166
H       -7.48958836      -0.63789809       0.50265891
O       -5.98866912       2.10270024       1.03484601
H       -6.45858652       0.71389208       1.77519221
9
Properties=species:S:1:pos:R:3 energy=-724.4151633636553 pbc="F F F"
C       -6.43010393       1.91595654      -1.31975675
C       -6.50242321       1.46180558       0.07837425
H       -7.23229258       1.51211224      -1.96193074
H       -5.45442973       1.57312191      -1.74963908
H       -6.44478013       3.03645753      -1.38564841
C       -6.95202092       0.26364156       0.72671462
H       -7.48749816      -0.63138686       0.50269854
O       -5.98454367       2.12391726       1.01931482
H       -6.47524868       0.67742225       1.77448975
9
Properties=species:S:1:pos:R:3 energy=-724.6253565034356 pbc="F F F"
C       -6.43103966       1.91407609      -1.32016976
C       -6.49648303       1.47033902       0.08230734
H       -7.23300013       1.51064333      -1.96092187
H       -5.45533437       1.57242269      -1.74898853
H       -6.44505677       3.03434862      -1.38705064
C       -6.94569387       0.26857231       0.73815644
H       -7.48463885      -0.62464339       0.50169451
O       -5.98060630       2.14634043       1.00444968
H       -6.49148803       0.64094890       1.77513982
9
Properties=species:S:1:pos:R:3 energy=-724.810280034842 pbc="F F F"
C       -6.43201326       1.91197783      -1.32032775
C       -6.49084512       1.47872888       0.08647603
H       -7.23444039       1.50964028      -1.95890689
H       -5.45717031       1.57030146      -1.74848767
H       -6.44427719       3.03177467      -1.38905635
C       -6.93955511       0.27356314       0.74793107
H       -7.48069491      -0.61761159       0.49919489
O       -5.97701553       2.17000327       0.99064449
H       -6.50732917       0.60467007       1.77714917
9
Properties=species:S:1:pos:R:3 energy=-724.9697683834125 pbc="F F F"
C       -6.43302341       1.90967490      -1.32019004
C       -6.48557749       1.48700518       0.09089663
H       -7.23678545       1.50920044      -1.95573595
H       -5.46008086       1.56646562      -1.74821303
H       -6.44221796       3.02875398      -1.39179821
C       -6.93352474       0.27859799       0.75612381
H       -7.47545614      -0.61029548       0.49489352
O       -5.97390615       2.19481463       0.97817626
H       -6.52276879       0.56883074       1.78046400
9
Properties=species:S:1:pos:R:3 energy=-725.1049996489103 pbc="F F F"
C       -6.43406289       1.90720659      -1.31971116
C       -6.48069967       1.49523395       0.09557771
H       -7.24007586       1.50934840      -1.95144116
H       -5.46402112       1.56086514      -1.74818948
H       -6.43885109       3.02538655      -1.39527502
C       -6.92758911       0.28363614       0.76288575
H       -7.46893308      -0.60282507       0.48878990
O       -5.97136322       2.22042194       0.96707696
H       -6.53774496       0.53377436       1.78490351
9
Properties=species:S:1:pos:R:3 energy=-725.218100628746 pbc="F F F"
C       -6.43512372       1.90461549      -1.31884506
C       -6.47622512       1.50348572       0.10052685
H       -7.24433557       1.51009958      -1.94607752
H       -5.46892250       1.55348053      -1.74843540
H       -6.43417319       3.02178268      -1.39946874
C       -6.92174289       0.28863376       0.76837624
H       -7.46116407      -0.59534623       0.48092202
O       -5.96946551       2.24643973       0.95734772
H       -6.55218842       0.49985673       1.79027090
9
Properties=species:S:1:pos:R:3 energy=-725.3116463166934 pbc="F F F"
C       -6.43619795       1.90194417      -1.31754567
C       -6.47216728       1.51183104       0.10575163
H       -7.24958857       1.51146940      -1.93970005
H       -5.47471642       1.54429230      -1.74896915
H       -6.42818088       3.01805269      -1.40436131
C       -6.91598076       0.29354703       0.77275465
H       -7.45218745      -0.58800484       0.47132788
O       -5.96829181       2.27248252       0.94898965
H       -6.56602988       0.46743369       1.79636938
9
Properties=species:S:1:pos:R:3 energy=-725.3883127165956 pbc="F F F"
C       -6.43727761       1.89923520      -1.31576693
C       -6.46853958       1.52034043       0.11125962
H       -7.25585882       1.51347328      -1.93236375
H       -5.48133431       1.53328095      -1.74980910
H       -6.42087078       3.01430687      -1.40993468
C       -6.91029737       0.29833213       0.77618034
H       -7.44204156      -0.58094678       0.46004546
O       -5.96792092       2.29816484       0.94200387
H       -6.57920004       0.43686107       1.80300217
9
Properties=species:S:1:pos:R:3 energy=-725.4507002942722 pbc="F F F"
C       -6.43835473       1.89653116      -1.31346277
C       -6.46535548       1.52908446       0.11705842
H       -7.26317030       1.51612665      -1.92412363
H       -5.48870757       1.52042700      -1.75097362
H       -6.41223950       3.01065554      -1.41617081
C       -6.90468741       0.30294523       0.77881268
H       -7.43076475      -0.57431793       0.44711276
O       -5.96843162       2.32310121       0.93639149
H       -6.59162963       0.40849468       1.80997248
9
Properties=species:S:1:pos:R:3 energy=-725.501281768292 pbc="F F F"
C       -6.43942066       1.89387184      -1.31059608
C       -6.46262228       1.53812683       0.12315260
H       -7.27153507       1.51944241      -1.91503554
H       -5.49677238       1.50572640      -1.75247415
H       -6.40229360       3.00719432      -1.42304359
C       -6.89914395       0.30734590       0.78080304
H       -7.41839552      -0.56824840       0.43258011
O       -5.96989803       2.34692263       0.93214757
H       -6.60325951       0.38266607       1.81708304
9
Properties=species:S:1:pos:R:3 energy=-725.5425975390062 pbc="F F F"
C       -6.44045871       1.89126458      -1.30723375
C       -6.46027591       1.54745190       0.12951189
H       -7.28082690       1.52340438      -1.90516511
H       -5.50552018       1.48935481      -1.75424161
H       -6.39115532       3.00384826      -1.43043333
C       -6.89364137       0.31153305       0.78220988
H       -7.40497405      -0.56268512       0.41664126
O       -5.97234014       2.36945161       0.92919669
H       -6.61414842       0.35942454       1.82413108
9
Properties=species:S:1:pos:R:3 energy=-725.5768666366382 pbc="F F F"
C       -6.44144701       1.88869580      -1.30350977
C       -6.45820629       1.55699286       0.13608352
H       -7.29083034       1.52797759      -1.89458430
H       -5.51497804       1.47160380      -1.75615499
H       -6.37902148       3.00043232      -1.43815995
C       -6.88814203       0.31553099       0.78303176
H       -7.39054168      -0.55745682       0.39958248
O       -5.97574296       2.39063420       0.92741798
H       -6.62443116       0.33863727       1.83091027
9
Properties=species:S:1:pos:R:3 energy=-725.6058619983213 pbc="F F F"
C       -6.44236361       1.88615157      -1.29955926
C       -6.45630252       1.56668202       0.14281436
H       -7.30132843       1.53312674      -1.88336516
H       -5.52517366       1.45276688      -1.75809239
H       -6.36609017       2.99675966      -1.44604237
C       -6.88260809       0.31936446       0.78326620
H       -7.37513973      -0.55239026       0.38169159
O       -5.98009096       2.41041852       0.92668979
H       -6.63424382       0.32016841       1.83721423
9
Properties=species:S:1:pos:R:3 energy=-725.6310802602708 pbc="F F F"
C       -6.44318655       1.88361796      -1.29551732
C       -6.45445376       1.57645170       0.14965125
H       -7.31210422       1.53881657      -1.87157975
H       -5.53613472       1.43313757      -1.75993194
H       -6.35255947       2.99264342      -1.45389949
C       -6.87700170       0.32305818       0.78291076
H       -7.35880954      -0.54731219       0.36325641
O       -5.98536858       2.42875268       0.92689050
H       -6.64372247       0.30388211       1.84283658
9
Properties=species:S:1:pos:R:3 energy=-725.6538265944123 pbc="F F F"
C       -6.44389388       1.88108103      -1.29151906
C       -6.45254912       1.58623422       0.15654105
H       -7.32294075       1.54501177      -1.85930013
H       -5.54788890       1.41300936      -1.76155173
H       -6.33862745       2.98789675      -1.46155025
C       -6.87128501       0.32663690       0.78196295
H       -7.34159243      -0.54204938       0.34456477
O       -5.99156028       2.44558480       0.92789847
H       -6.65300318       0.28964254       1.84757093
9
Properties=species:S:1:pos:R:3 energy=-725.675206507492 pbc="F F F"
C       -6.44446366       1.87852686      -1.28769958
C       -6.45047779       1.59596189       0.16343064
H       -7.33362115       1.55167707      -1.84659836
H       -5.56046385       1.39267571      -1.76282994
H       -6.32449216       2.98233286      -1.46881359
C       -6.86542019       0.33012534       0.78042037
H       -7.32352975      -0.53642863       0.32590440
O       -5.99865047       2.46086308       0.92959209
H       -6.66222199       0.27731384       1.85121097
9
Properties=species:S:1:pos:R:3 energy=-725.6958054775904 pbc="F F F"
C       -6.44488510       1.87594347      -1.28417109
C       -6.44817185       1.60555311       0.17027352
H       -7.34398520       1.55877192      -1.83354597
H       -5.57385568       1.37236483      -1.76368432
H       -6.31031159       2.97583245      -1.47555241
C       -6.85938378       0.33354864       0.77830696
H       -7.30467595      -0.53032902       0.30748651
O       -6.00659245       2.47460791       0.93188380
H       -6.67147940       0.26675470       1.85361999
9
Properties=species:S:1:pos:R:3 energy=-725.7152759707425 pbc="F F F"
C       -6.44517952       1.87332455      -1.28098008
C       -6.44568688       1.61488630       0.17704238
H       -7.35403582       1.56624068      -1.82021307
H       -5.58796974       1.35211731      -1.76414659
H       -6.29612856       2.96847035      -1.48175592
C       -6.85319369       0.33693310       0.77572266
H       -7.28512313      -0.52377988       0.28930217
O       -6.01525000       2.48704746       0.93478394
H       -6.68077366       0.25780813       1.85486150
9
Properties=species:S:1:pos:R:3 energy=-725.733130305656 pbc="F F F"
C       -6.44537398       1.87066478      -1.27816128
C       -6.44310052       1.62383274       0.18371331
H       -7.36380506       1.57402501      -1.80666947
H       -5.60269520       1.33194024      -1.76426884
H       -6.28196528       2.96035609      -1.48743595
C       -6.84687519       0.34030522       0.77278097
H       -7.26497013      -0.51683744       0.27130312
O       -6.02447090       2.49844702       0.93832033
H       -6.69008475       0.25031434       1.85503480
9
Properties=species:S:1:pos:R:3 energy=-725.7490595360318 pbc="F F F"
C       -6.44549554       1.86795885      -1.27574940
C       -6.44049039       1.63226369       0.19026239
H       -7.37332495       1.58206657      -1.79298499
H       -5.61792118       1.31184067      -1.76410315
H       -6.26784400       2.95159919      -1.49260429
C       -6.84045359       0.34369152       0.76959538
H       -7.24431579      -0.50955789       0.25344107
O       -6.03410291       2.50907187       0.94252081
H       -6.69939265       0.24411353       1.85423918
9
Properties=species:S:1:pos:R:3 energy=-725.7630062577972 pbc="F F F"
C       -6.44557125       1.86520143      -1.27377917
C       -6.43793414       1.64005045       0.19666572
H       -7.38262755       1.59030702      -1.77922947
H       -5.63353685       1.29182568      -1.76370162
H       -6.25378693       2.94230918      -1.49727277
C       -6.83395416       0.34711849       0.76627939
H       -7.22325895      -0.50199745       0.23566775
O       -6.04399382       2.51918729       0.94741322
H       -6.70867735       0.23904591       1.85257394
9
Properties=species:S:1:pos:R:3 energy=-725.7750943239872 pbc="F F F"
C       -6.44562817       1.86238722      -1.27228533
C       -6.43550939       1.64706427       0.20289939
H       -7.39174491       1.59868802      -1.76547272
H       -5.64943134       1.27190234      -1.76311631
H       -6.23981631       2.93259559      -1.50145318
C       -6.82740220       0.35061264       0.76294650
H       -7.20189845      -0.49421232       0.21793489
O       -6.05399140       2.52905858       0.95302537
H       -6.71791883       0.23495168       1.85013838
9
Properties=species:S:1:pos:R:3 energy=-725.7854055076431 pbc="F F F"
C       -6.44569335       1.85951090      -1.27130258
C       -6.43329378       1.65317644       0.20893950
H       -7.40070908       1.60715122      -1.75178458
H       -5.66549381       1.25207772      -1.76239932
H       -6.22595435       2.92256793      -1.50515734
C       -6.82082301       0.35420047       0.75971020
H       -7.18033314      -0.48625873       0.20019422