9
Properties=species:S:1:pos:R:3:momenta:R:3:forces:R:3 pbc="F F F"
C       -5.94059175       0.37124088       2.20474974      -0.73252203       0.94135938      -1.89774278       0.01877796      -0.16437495      -0.04363432
C       -6.14145085      -0.50215715       3.36052655       1.08394040      -0.07299060      -0.40564664      -0.04163362       0.01734394       0.10882732
H       -6.86059855       0.47696397       1.60759873       0.06363951       0.09305846      -0.13823247       0.02569784      -0.01136257      -0.03477093
H       -5.14606281      -0.03262253       1.54184274       0.17813263      -0.17982218      -0.16818116      -0.12931613       0.05852396       0.06129333
H       -5.61646434       1.38636724       2.49140777       0.02042558      -0.27538040       0.31103294      -0.00003214      -0.02728266       0.09728403
C       -6.77344227      -1.65821602       3.67951089      -1.22774725       0.27364909      -0.21312081       0.34391846       2.01637101      -2.39555310
H       -7.36608455      -2.49886918       3.69239555       0.00915509       0.10867402       0.31917569      -0.01708263      -0.01519537      -0.02697406
O       -5.46135895      -0.16646699       4.63310015      -0.69385763      -0.41818133       1.36491290      -1.91838405      -1.49923252      -2.78919922
H       -6.05179249      -1.23739126       4.75601725      -0.39368459      -0.40039236       0.25778652       1.71805432      -0.37479085       5.02272695
