24
Properties=species:S:1:pos:R:3 energy=-2749.5966196006257 pbc="F F F"
O       -2.48711800       1.96905600       4.14409700
C       -1.87195200       1.93742000       3.12597500
C       -2.14936500       1.42628000       1.76008600
C       -3.54387300       1.82796100       1.27065900
C       -3.62254600       3.32083200       0.92887200
C       -5.02945500       3.74358500       0.49637500
H       -5.10153200       4.84753900       0.35106000
C       -5.47696000       3.04734200      -0.80619000
O       -4.77303100       3.11049300      -1.78764800
C       -6.79072200       2.34405500      -0.76732300
H       -6.95118100       4.58140000       2.52509900
H       -1.36108300       1.78007800       1.04828400
H       -2.04916500       0.31621700       1.76357700
H       -3.80017800       1.22172600       0.37683400
H       -4.30676500       1.57710500       2.04008000
H       -3.31350200       3.93053100       1.80211300
H       -2.91346800       3.56709800       0.10717900
H       -7.58677900       2.99932900      -0.37241100
H       -7.09563100       1.98710200      -1.76021600
H       -6.76224800       1.48109600      -0.08473900
O       -5.88287700       3.35605500       1.60596600
O       -6.99095300       4.25283500       1.57666700
O        0.21268000       2.61905300       2.33868100
O       -0.46884600       2.56445300       3.31923000
24
Properties=species:S:1:pos:R:3 energy=-2749.5879887249707 pbc="F F F"
O       -2.50827784       1.99040987       4.14874981
C       -1.88803839       1.95781481       3.13375629
C       -2.13725348       1.43275084       1.77361090
C       -3.53793093       1.80693918       1.27224190
C       -3.61801750       3.29548551       0.90758371
C       -5.02736934       3.73240354       0.49736458
H       -5.09365707       4.83892311       0.36902939
C       -5.48705797       3.05584316      -0.81112867
O       -4.78587545       3.12276069      -1.79438446
C       -6.80791492       2.36493750      -0.77357265
H       -6.93127667       4.56118261       2.54535431
H       -1.35916469       1.79521951       1.05496999
H       -1.99467431       0.34168856       1.78034630
H       -3.78675142       1.18474173       0.38881442
H       -4.30425494       1.56234015       2.04142007
H       -3.28186879       3.91924492       1.75900040
H       -2.92590914       3.52080893       0.06572290
H       -7.59698584       3.03868909      -0.39912433
H       -7.10755293       1.99212227      -1.76217252
H       -6.79695390       1.51641161      -0.07362931
O       -5.87604037       3.33600931       1.60796521
O       -6.97908202       4.24009283       1.59387754
O        0.20214412       2.60923371       2.35431044
O       -0.48678622       2.59258757       3.32220078
24
Properties=species:S:1:pos:R:3 energy=-2749.564923225076 pbc="F F F"
O       -2.52979673       2.01098430       4.15282869
C       -1.90392128       1.97787910       3.14138732
C       -2.12642425       1.43972136       1.78658266
C       -3.53215986       1.78622880       1.27381040
C       -3.61384355       3.27018212       0.88640122
C       -5.02518400       3.72116538       0.49830840
H       -5.08561110       4.83001680       0.38683682
C       -5.49685907       3.06445715      -0.81595153
O       -4.79832272       3.13498375      -1.80092654
C       -6.82472435       2.38612384      -0.77956294
H       -6.91123815       4.54072780       2.56538385
H       -1.35741821       1.80965179       1.06171472
H       -1.93812319       0.36818339       1.79862951
H       -3.77320843       1.14833886       0.40076958
H       -4.30179989       1.54748232       2.04260881
H       -3.25116437       3.90737510       1.71557125
H       -2.93908630       3.47440231       0.02516797
H       -7.60665362       3.07772091      -0.42560862
H       -7.11947384       1.99732845      -1.76350764
H       -6.83091464       1.55225504      -0.06264094
O       -5.86943112       3.31592653       1.60954062
O       -6.96720008       4.22729795       1.61096437
O        0.19138851       2.59995248       2.36868279
O       -0.50537975       2.62025546       3.32531624
24
Properties=species:S:1:pos:R:3 energy=-2749.530961844557 pbc="F F F"
O       -2.55164890       2.03080283       4.15634174
C       -1.91960276       1.99761170       3.14885969
C       -2.11683410       1.44716940       1.79900288
C       -3.52655327       1.76582920       1.27535892
C       -3.61002882       3.24491238       0.86532749
C       -5.02290519       3.70986523       0.49920186
H       -5.07739184       4.82081104       0.40447339
C       -5.50636350       3.07317738      -0.82065682
O       -4.81037543       3.14716258      -1.80727391
C       -6.84114511       2.40760989      -0.78529223
H       -6.89106214       4.52002739       2.58517548
H       -1.35584002       1.82340526       1.06850484
H       -1.87966211       0.39570543       1.81837100
H       -3.75954636       1.11252318       0.41269179
H       -4.29939466       1.53253901       2.04364768
H       -3.22140236       3.89490940       1.67183766
H       -2.95299621       3.42788472      -0.01447440
H       -7.61578511       3.11641798      -0.45186160
H       -7.13139042       2.00273642      -1.76421368
H       -6.86411662       1.58862812      -0.05177462
O       -5.86305235       3.29581242       1.61069871
O       -6.95530058       4.21444362       1.62792442
O        0.18043258       2.59121574       2.38185728
O       -0.52458472       2.64744070       3.32857944
24
Properties=species:S:1:pos:R:3 energy=-2749.4886562992792 pbc="F F F"
O       -2.57380858       2.04988895       4.15929706
C       -1.93508491       2.01701147       3.15616498
C       -2.10843981       1.45507280       1.81087317
C       -3.52110470       1.74573971       1.27688189
C       -3.60657798       3.21966682       0.84436551
C       -5.02053912       3.69849782       0.50004034
H       -5.06899701       4.81129678       0.42193019
C       -5.51557145       3.08199723      -0.82524273
O       -4.82203622       3.15929760      -1.81342621
C       -6.85717206       2.42939152      -0.79075889
H       -6.87074531       4.49907320       2.60471702
H       -1.35442657       1.83651033       1.07532698
H       -1.81944150       0.42425860       1.83951516
H       -3.74576255       1.07730052       0.42457333
H       -4.29703405       1.51751769       2.04453811
H       -3.19259637       3.88183564       1.62781168
H       -2.96763556       3.38126275      -0.05319283
H       -7.62438306       3.15477381      -0.47788099
H       -7.14329934       2.00836202      -1.76428296
H       -6.89654624       1.62553269      -0.04103103
O       -5.85690711       3.27567273       1.61144596
O       -6.94337696       4.20152307       1.64475461
O        0.16929573       2.58302992       2.39389316
O       -0.54435925       2.67412730       3.33199346
24
Properties=species:S:1:pos:R:3 energy=-2749.439498505364 pbc="F F F"
O       -2.59624999       2.06826620       4.16170278
C       -1.95036981       2.03607726       3.16329482
C       -2.10119819       1.46340940       1.82219515
C       -3.51580762       1.72595967       1.27837370
C       -3.60349572       3.19443598       0.82351826
C       -5.01809200       3.68705787       0.50081924
H       -5.06042436       4.80146498       0.43919831
C       -5.52448310       3.09091009      -0.82970750
O       -4.83330773       3.17138923      -1.81938310
C       -6.87280001       2.45146461      -0.79596126
H       -6.85028437       4.47785707       2.62399631
H       -1.35317433       1.84899743       1.08216779
H       -1.75761183       0.45384685       1.86200637
H       -3.73185431       1.04267669       0.43640652
H       -4.29471289       1.50242586       2.04528157
H       -3.16476002       3.86814168       1.58350541
H       -2.98300109       3.33454298      -0.09097591
H       -7.63245024       3.19278192      -0.50366453
H       -7.15519729       2.01422112      -1.76370781
H       -6.92818987       1.66297058      -0.03041089
O       -5.85099849       3.25551324       1.61178884
O       -6.93142264       4.18852955       1.66145189
O        0.15799739       2.57540145       2.40484966
O       -0.56466148       2.70029927       3.33556136
24
Properties=species:S:1:pos:R:3 energy=-2749.383827800679 pbc="F F F"
O       -2.61894736       2.08595808       4.16356698
C       -1.96545956       2.05480790       3.17024080
C       -2.09506602       1.47215704       1.83297042
C       -3.51065555       1.70648842       1.27982880
C       -3.60078670       3.16921040       0.80278872
C       -5.01557003       3.67554011       0.50153396
H       -5.05167163       4.79130660       0.45626884
C       -5.53309864       3.09990938      -0.83404932
O       -4.84419259       3.18343790      -1.82514423
C       -6.88802381       2.47382503      -0.80089771
H       -6.82967601       4.45637080       2.64300117
H       -1.35207974       1.86089698       1.08901391
H       -1.69432354       0.48447409       1.88578899
H       -3.71781897       1.00865751       0.44818364
H       -4.29242597       1.48727102       2.04587949
H       -3.13790691       3.85381536       1.53893092
H       -2.99908950       3.28773200      -0.12781227
H       -7.63998942       3.23043582      -0.52920994
H       -7.16708096       2.02032957      -1.76248055
H       -6.95903392       1.70094363      -0.01991489
O       -5.84532956       3.23533971       1.61173381
O       -6.91943105       4.17545629       1.67801319
O        0.14655697       2.56833675       2.41478603
O       -0.58544953       2.72594063       3.33928621
24
Properties=species:S:1:pos:R:3 energy=-2749.3207290267756 pbc="F F F"
O       -2.64187491       2.10298812       4.16489779
C       -1.98035623       2.07320226       3.17699452
C       -2.09000008       1.48129356       1.84320058
C       -3.50564200       1.68732528       1.28124160
C       -3.59845560       3.14398061       0.78217986
C       -5.01297942       3.66393924       0.50217988
H       -5.04273654       4.78081260       0.47313288
C       -5.54141825       3.10898846      -0.83826642
O       -4.85469343       3.19544400      -1.83070927
C       -6.90283830       2.49646864      -0.80556660
H       -6.80891691       4.43460622       2.66171945
H       -1.35113927       1.87223938       1.09585198
H       -1.62972710       0.51614427       1.91080741
H       -3.70365385       0.97524880       0.45989700
H       -4.29016811       1.47206065       2.04633332
H       -3.11205068       3.83884452       1.49410030
H       -3.01589750       3.24083638      -0.16369051
H       -7.64700336       3.26772903      -0.55451496
H       -7.17894701       2.02670323      -1.76059349
H       -6.98906478       1.73945367      -0.00954373
O       -5.83990341       3.21515790       1.61128737
O       -6.90739561       4.16229654       1.69443545
O        0.13499388       2.56184225       2.42376151
O       -0.60668153       2.75103538       3.34317108
24
Properties=species:S:1:pos:R:3 energy=-2749.2479588487377 pbc="F F F"
O       -2.66500686       2.11937983       4.16570331
C       -1.99506191       2.09125917       3.18354759
C       -2.08595717       1.49079679       1.85288726
C       -3.50076047       1.66846959       1.28260652
C       -3.59650710       3.11873715       0.76169468
C       -5.01032638       3.65225000       0.50275240
H       -5.03361683       4.76997393       0.48978151
C       -5.54944213       3.11814075      -0.84235701
O       -4.86481290       3.20740797      -1.83607786
C       -6.91723831       2.51939133      -0.80996630
H       -6.78800376       4.41255516       2.68013898
H       -1.35034937       1.88305506       1.10266864
H       -1.56397294       0.54886130       1.93700600
H       -3.68935630       0.94245638       0.47153889
H       -4.28793412       1.45680225       2.04664451
H       -3.08720492       3.82321701       1.44902562
H       -3.03342182       3.19386273      -0.19859924
H       -7.65349481       3.30465506      -0.57957732
H       -7.19079214       2.03335797      -1.75803898
H       -7.01826884       1.77850254       0.00070187
O       -5.83472310       3.19497358       1.61045597
O       -6.89530975       4.14904354       1.71071560
O        0.12332754       2.55592438       2.43183534
O       -0.62831560       2.77556754       3.34721904
24
Properties=species:S:1:pos:R:3 energy=-2749.1619562322085 pbc="F F F"
O       -2.68831745       2.13515673       4.16599164
C       -2.00957869       2.10897749       3.18989160
C       -2.08289408       1.50064458       1.86203204
C       -3.49600446       1.64992070       1.28391797
C       -3.59494588       3.09347057       0.74133614
C       -5.00761711       3.64046710       0.50324691
H       -5.02431025       4.75878156       0.50620584
C       -5.55717046       3.12735964      -0.84631930
O       -4.87455362       3.21933021      -1.84124967
C       -6.93121867       2.54258896      -0.81409516
H       -6.76693327       4.39020943       2.69824758
H       -1.34970650       1.89337444       1.10945054
H       -1.49721154       0.58262912       1.96432915
H       -3.67492362       0.91028605       0.48310161
H       -4.28571880       1.44150330       2.04681450
H       -3.06338326       3.80692067       1.40371896
H       -3.05165915       3.14681762      -0.23252708
H       -7.65946655       3.34120742      -0.60439475
H       -7.20261302       2.04030964      -1.75480932
H       -7.04663248       1.81809207       0.01082122
O       -5.82979172       3.17479250       1.60924610
O       -6.88316689       4.13569053       1.72685057
O        0.11157735       2.55058955       2.43906676
O       -0.65030987       2.79952113       3.35143315
24
Properties=species:S:1:pos:R:3 energy=-2749.0579978045967 pbc="F F F"
O       -2.71178090       2.15034233       4.16577090
C       -2.02390864       2.12635606       3.19601816
C       -2.08076759       1.51081476       1.87063656
C       -3.49136748       1.63167792       1.28517038
C       -3.59377660       3.06817139       0.72110724
C       -5.00485782       3.62858527       0.50365879
H       -5.01481453       4.74722644       0.52239694
C       -5.56460343       3.13663851      -0.85015152
O       -4.88391823       3.23121115      -1.84622434
C       -6.94477422       2.56605740      -0.81795153
H       -6.74570211       4.36756086       2.71603310
H       -1.34920712       1.90322793       1.11618431
H       -1.42959333       0.61745166       1.99272122
H       -3.66035316       0.87874363       0.49457746
H       -4.28351698       1.42617131       2.04684475
H       -3.04059931       3.78994335       1.35819241
H       -3.07060623       3.09970763      -0.26546263
H       -7.66492133       3.37737964      -0.62896498
H       -7.21440635       2.04757409      -1.75089685
H       -7.07414211       1.85822410       0.02081361
O       -5.82511234       3.15462043       1.60766423
O       -6.87096046       4.12223075       1.74283729
O        0.09976275       2.54584421       2.44551500
O       -0.67262247       2.82288016       3.35581650
24
Properties=species:S:1:pos:R:3 energy=-2748.930545036373 pbc="F F F"
O       -2.73537142       2.16496015       4.16504919
C       -2.03805386       2.14339374       3.20191887
C       -2.07953450       1.52128518       1.87870240
C       -3.48684303       1.61374061       1.28635817
C       -3.59300395       3.04283015       0.70101094
C       -5.00205472       3.61659923       0.50398346
H       -5.00512741       4.73529953       0.53834592
C       -5.57174123       3.14597076      -0.85385187
O       -4.89290936       3.24305120      -1.85100153
C       -6.95789981       2.58979254      -0.82153379
H       -6.72430698       4.34460127       2.73348337
H       -1.34884767       1.91264595       1.12285659
H       -1.36126877       0.65333286       2.02212660
H       -3.64564223       0.84783495       0.50595873
H       -4.28132345       1.41081375       2.04673669
H       -3.01886668       3.77227289       1.31245804
H       -3.09025976       3.05253936      -0.29739450
H       -7.66986193       3.41316523      -0.65328573
H       -7.22616879       2.05516720      -1.74629388
H       -7.10078411       1.89890047       0.03067834
O       -5.82068804       3.13446314       1.60571683
O       -6.85868389       4.10865745       1.75867271
O        0.08790313       2.54169477       2.45123931
O       -0.69521153       2.84562864       3.36037214
24
Properties=species:S:1:pos:R:3 energy=-2748.7738004713938 pbc="F F F"
O       -2.75906326       2.17903371       4.16383461
C       -2.05201643       2.16008936       3.20758533
C       -2.07915159       1.53203367       1.88623119
C       -3.48242462       1.59610810       1.28747576
C       -3.59263261       3.01743741       0.68105024
C       -4.99921402       3.60450369       0.50421629
H       -4.99524662       4.72299178       0.55404387
C       -5.57858405       3.15534980      -0.85741856
O       -4.90152966       3.25485077      -1.85558090
C       -6.97059025       2.61379023      -0.82484029
H       -6.70274457       4.32132248       2.75058622
H       -1.34862463       1.92165892       1.12945404
H       -1.29238832       0.69027663       2.05248966
H       -3.63078816       0.81756581       0.51723772
H       -4.27913303       1.39543812       2.04649178
H       -2.99819900       3.75389713       1.26652794
H       -3.11061645       3.00531939      -0.32831131
H       -7.67429110       3.44855770      -0.67735475
H       -7.23789703       2.06310481      -1.74099274
H       -7.12654487       1.94012300       0.04041471
O       -5.81652189       3.11432639       1.60341037
O       -6.84633059       4.09496386       1.77435376
O        0.07601791       2.53814767       2.45629893
O       -0.71803517       2.86775058       3.36510314
24
Properties=species:S:1:pos:R:3 energy=-2748.5824513657963 pbc="F F F"
O       -2.78283063       2.19258652       4.16213529
C       -2.06579844       2.17644178       3.21300915
C       -2.07957566       1.54303807       1.89322452
C       -3.47810575       1.57877971       1.28851757
C       -3.59266723       2.99198368       0.66122811
C       -4.99634191       3.59229339       0.50435267
H       -4.98516990       4.71029416       0.56948187
C       -5.58513207       3.16476900      -0.86084983
O       -4.90978175       3.26661029      -1.85996210
C       -6.98284040       2.63804636      -0.82786939
H       -6.68101157       4.29771631       2.76732949
H       -1.34853444       1.93029726       1.13596328
H       -1.22310242       0.72828692       2.08375478
H       -3.61578828       0.78794203       0.52840674
H       -4.27694053       1.38005192       2.04611146
H       -2.97860987       3.73480391       1.22041418
H       -3.13167303       2.95805430      -0.35820166
H       -7.67821160       3.48355057      -0.70116975
H       -7.24958776       2.07140279      -1.73498575
H       -7.15141079       1.98189354       0.05002201
O       -5.81261697       3.09421594       1.60075133
O       -6.83389399       4.08114323       1.78987737
O        0.06412651       2.53520932       2.46075311
O       -0.74105152       2.88923000       3.37001258
24
Properties=species:S:1:pos:R:3 energy=-2748.352547304413 pbc="F F F"
O       -2.80664777       2.20564210       4.15995931
C       -2.07940196       2.19244984       3.21818192
C       -2.08076349       1.55427622       1.89968401
C       -3.47387992       1.56175479       1.28947801
C       -3.59311251       2.96645951       0.64154752
C       -4.99344462       3.57996304       0.50438801
H       -4.97489499       4.69719763       0.58465102
C       -5.59138548       3.17422177      -0.86414387
O       -4.91766827       3.27833017      -1.86414479
C       -6.99464508       2.66255679      -0.83061945
H       -6.65910467       4.27377460       2.78370100
H       -1.34857355       1.93859138       1.14237096
H       -1.15356154       0.76736765       2.11586634
H       -3.60063991       0.75896944       0.53945807
H       -4.27474076       1.36466263       2.04559717
H       -2.96011291       3.71498109       1.17412884
H       -3.15342620       2.91075068      -0.38705417
H       -7.68162620       3.51813735      -0.72472848
H       -7.26123765       2.08007700      -1.72826524
H       -7.17536825       2.02421391       0.05949954
O       -5.80897637       3.07413755       1.59774619
O       -6.82136753       4.06718880       1.80524048
O        0.05224835       2.53288616       2.46466107
O       -0.76421871       2.91005092       3.37510352
24
Properties=species:S:1:pos:R:3 energy=-2748.0824436032667 pbc="F F F"
O       -2.83048888       2.21822398       4.15731480
C       -2.09282909       2.20811239       3.22309524
C       -2.08267187       1.56572597       1.90561127
C       -3.46974065       1.54503267       1.29035152
C       -3.59397312       2.94085543       0.62201147
C       -4.99052834       3.56750735       0.50431770
H       -4.96441962       4.68369313       0.59954242
C       -5.59734447       3.18370149      -0.86729890
O       -4.92519186       3.29001082      -1.86812862
C       -7.00599913       2.68731739      -0.83308884
H       -6.63702057       4.24948914       2.79968860
H       -1.34873844       1.94657170       1.14866372
H       -1.08391611       0.80752275       2.14876871
H       -3.58534039       0.73065384       0.55038402
H       -4.27252853       1.34927774       2.04495038
H       -2.94272174       3.69441651       1.12768401
H       -3.17587267       2.86341512      -0.41485744
H       -7.68453767       3.55231155      -0.74802865
H       -7.27284339       2.08914329      -1.72082352
H       -7.19840366       2.06708596       0.06884660
O       -5.80560314       3.05409700       1.59440141
O       -6.80874461       4.05309381       1.82044002
O        0.04040282       2.53118461       2.46808206
O       -0.78749487       2.93019734       3.38037903
24
Properties=species:S:1:pos:R:3 energy=-2747.773756186741 pbc="F F F"
O       -2.85432821       2.23035565       4.15420986
C       -2.10608191       2.22342828       3.22774073
C       -2.08525760       1.57736515       1.91100790
C       -3.46568143       1.52861268       1.29113250
C       -3.59525374       2.91516199       0.60262293
C       -4.98759928       3.55492107       0.50413711
H       -4.95374153       4.66977164       0.61414714
C       -5.60300922       3.19320157      -0.87031314
O       -4.93235514       3.30165268      -1.87191324
C       -7.01689740       2.71232405      -0.83527591
H       -6.61475595       4.22485178       2.81528011
H       -1.34902555       1.95426864       1.15482821
H       -1.01431661       0.84875615       2.18240628
H       -3.56988703       0.70300105       0.56117689
H       -4.27029865       1.33390475       2.04417251
H       -2.92644997       3.67309800       1.08109176
H       -3.19900917       2.81605419      -0.44160008
H       -7.68694876       3.58606670      -0.77106801
H       -7.28440166       2.09861752      -1.71265293
H       -7.22050339       2.11051152       0.07806249
O       -5.80250038       3.03410003       1.59072347
O       -6.79601868       4.03885150       1.83547292
O        0.02860936       2.53011111       2.47107533
O       -0.81083811       2.94965328       3.38584218
24
Properties=species:S:1:pos:R:3 energy=-2747.4323066418738 pbc="F F F"
O       -2.87813997       2.24206065       4.15065259
C       -2.11916250       2.23839636       3.23210998
C       -2.08847745       1.58917160       1.91587551
C       -3.46169577       1.51249417       1.29181537
C       -3.59695903       2.88936972       0.58338488
C       -4.98466365       3.54219889       0.50384166
H       -4.94285846       4.65542410       0.62845629
C       -5.60837993       3.20271540      -0.87318480
O       -4.93916076       3.31325614      -1.87549832
C       -7.02733470       2.73757263      -0.83717902
H       -6.59230750       4.19985434       2.83046337
H       -1.34943134       1.96171262       1.16085106
H       -0.94491347       0.89107179       2.21672341
H       -3.55427717       0.67601689       0.57182896
H       -4.26804593       1.31855115       2.04326502
H       -2.91131121       3.65101342       1.03436417
H       -3.22283241       2.76867449      -0.46727071
H       -7.68886224       3.61939631      -0.79384428
H       -7.29590914       2.10851556      -1.70374578
H       -7.24165385       2.15449243       0.08714650
O       -5.79967115       3.01415242       1.58671885
O       -6.78318315       4.02445512       1.85033612
O        0.01688737       2.52967207       2.47370010
O       -0.83420657       2.96840275       3.39149604
24
Properties=species:S:1:pos:R:3 energy=-2747.0690377583314 pbc="F F F"
O       -2.90189839       2.25336249       4.14665111
C       -2.13207295       2.25301548       3.23619459
C       -2.09228823       1.60112315       1.92021572
C       -3.45777718       1.49667646       1.29239457
C       -3.59909368       2.86346916       0.56430030
C       -4.98172765       3.52933556       0.50342673
H       -4.93176815       4.64064148       0.64246096
C       -5.61345679       3.21223636      -0.87591210
O       -4.94561135       3.32482162      -1.87888350
C       -7.03730588       2.76305900      -0.83879653
H       -6.56967192       4.17448862       2.84522622
H       -1.34995227       1.96893405       1.16671892
H       -0.87585715       0.93447360       2.25166449
H       -3.53850813       0.64970717       0.58233254
H       -4.26576518       1.30322443       2.04222935
H       -2.89731908       3.62815060       0.98751333
H       -3.24733909       2.72128260      -0.49185794
H       -7.69028087       3.65229389      -0.81635519
H       -7.30736251       2.11885325      -1.69409439
H       -7.26184142       2.19903051       0.09609793
O       -5.79711854       2.99425993       1.58239402
O       -6.77023145       4.00989790       1.86502656
O        0.00525627       2.52987392       2.47601563
O       -0.85755838       2.98642976       3.39734368
24
Properties=species:S:1:pos:R:3 energy=-2746.175038605808 pbc="F F F"
O       -2.92557770       2.26428468       4.14221352
C       -2.14481535       2.26728448       3.23998616
C       -2.09664671       1.61319766       1.92403012
C       -3.45391915       1.48115890       1.29286450
C       -3.60166236       2.83745085       0.54537217
C       -4.97879750       3.51632578       0.50288771
H       -4.92046833       4.62541473       0.65615224
C       -5.61823997       3.22175786      -0.87849325
O       -4.95170955       3.33634956      -1.88206844
C       -7.04680578       2.78877903      -0.84012680
H       -6.54684590       4.14874647       2.85955648
H       -1.35058479       1.97596336       1.17241842
H       -0.80729811       0.97896549       2.28717390
H       -3.52257724       0.62407771       0.59267994
H       -4.26345120       1.28793207       2.04106696
H       -2.88448720       3.60449740       0.94055131
H       -3.27252594       2.67388510      -0.51535037
H       -7.69120742       3.68475295      -0.83859847
H       -7.31875846       2.12964647      -1.68369110
H       -7.28105250       2.24412761       0.10491607
O       -5.79484562       2.97442832       1.57775544
O       -6.75715700       3.99517308       1.87954117
O       -0.00626454       2.53072309       2.47808115
O       -0.88085167       3.00371834       3.40338816
24
Properties=species:S:1:pos:R:3 energy=-2745.967224075059 pbc="F F F"
O       -2.94915212       2.27485075       4.13734792
C       -2.15739177       2.28120221       3.24347630
C       -2.10150970       1.62537295       1.92732033
C       -3.45011520       1.46594081       1.29321959
C       -3.60466974       2.81130533       0.52660347
C       -4.97587940       3.50316428       0.50222000
H       -4.90895674       4.60973481       0.66952122
C       -5.62272967       3.23127329      -0.88092647
O       -4.95745798       3.34784035      -1.88505280
C       -7.05582923       2.81472860      -0.84116820
H       -6.52382612       4.12261969       2.87344200
H       -1.35132537       1.98283095       1.17793622
H       -0.73938680       1.02455142       2.32319600
H       -3.50648182       0.59913433       0.60286343
H       -4.26109882       1.27268158       2.03977929
H       -2.87282917       3.58004165       0.89349020
H       -3.29838967       2.62648859      -0.53773662
H       -7.69164465       3.71676702      -0.86057185
H       -7.33009367       2.14091107      -1.67252822
H       -7.29927348       2.28978556       0.11360023
O       -5.79285547       2.95466336       1.57280961
O       -6.74395324       3.98027392       1.89387687
O       -0.01765563       2.53222601       2.47995590
O       -0.90404455       3.02025249       3.40963256
24
Properties=species:S:1:pos:R:3 energy=-2745.970729635723 pbc="F F F"
O       -2.97259588       2.28508420       4.13206244
C       -2.16980430       2.29476751       3.24665661
C       -2.10683398       1.63762687       1.93008796
C       -3.44635882       1.45102154       1.29345426
C       -3.60812051       2.78502312       0.50799719
C       -4.97297956       3.48984577       0.50141899
H       -4.89723111       4.59359268       0.68255899
C       -5.62692607       3.24077604      -0.88320997
O       -4.96285929       3.35929442      -1.88783624
C       -7.06437107       2.84090359      -0.84191908
H       -6.50060928       4.09610012       2.88687060
H       -1.35217045       1.98956726       1.18325894
H       -0.67227367       1.07123530       2.35967518
H       -3.49021921       0.57488284       0.61287533
H       -4.25870284       1.25748044       2.03836778
H       -2.86235862       3.55477120       0.84634207
H       -3.32492698       2.57909963      -0.55900529
H       -7.69159532       3.74832961      -0.88227307
H       -7.34136481       2.15266290      -1.66059808
H       -7.31649074       2.33600619       0.12214970
O       -5.79115116       2.93497081       1.56756298
O       -6.73061358       3.96519365       1.90803062