24
Properties=species:S:1:pos:R:3 energy=-2745.967224075059 pbc="F F F"
O       -2.94915212       2.27485075       4.13734792
C       -2.15739177       2.28120221       3.24347630
C       -2.10150970       1.62537295       1.92732033
C       -3.45011520       1.46594081       1.29321959
C       -3.60466974       2.81130533       0.52660347
C       -4.97587940       3.50316428       0.50222000
H       -4.90895674       4.60973481       0.66952122
C       -5.62272967       3.23127329      -0.88092647
O       -4.95745798       3.34784035      -1.88505280
C       -7.05582923       2.81472860      -0.84116820
H       -6.52382612       4.12261969       2.87344200
H       -1.35132537       1.98283095       1.17793622
H       -0.73938680       1.02455142       2.32319600
H       -3.50648182       0.59913433       0.60286343
H       -4.26109882       1.27268158       2.03977929
H       -2.87282917       3.58004165       0.89349020
H       -3.29838967       2.62648859      -0.53773662
H       -7.69164465       3.71676702      -0.86057185
H       -7.33009367       2.14091107      -1.67252822
H       -7.29927348       2.28978556       0.11360023
O       -5.79285547       2.95466336       1.57280961
O       -6.74395324       3.98027392       1.89387687
O       -0.01765563       2.53222601       2.47995590
O       -0.90404455       3.02025249       3.40963256
