24
Properties=species:S:1:pos:R:3:momenta:R:3:forces:R:3 pbc="F F F"
O       -6.59090002       4.56612952       1.42052661      -1.79401234      -0.75480747       0.07847898       0.00129008       0.08982069       0.08201715
C       -6.29180361       4.64441110       2.57741304      -0.44867058      -0.51170430      -0.81065030       0.16449606      -0.04491232      -0.04705706
C       -5.15901637       3.93490754       3.32721917      -0.10885367      -0.68799086       1.52632949      -2.46657613       1.32540651       0.97984427
C       -5.16630067       2.44449405       3.29601858       1.91077572       0.33599805       0.35855158       0.17397701       0.02957359       0.11357729
C       -3.81472783       1.82442181       2.92160813      -0.80468938      -0.73603392      -0.44860895       0.08527164      -0.00916808      -0.03050572
C       -3.56033449       1.86812059       1.41094383      -1.05165627       0.27266910      -0.68034190      -0.03541740      -0.04838993      -0.01139063
H       -3.30791216       2.89709461       1.06414736       0.09460670      -0.00775241      -0.07983633       0.03042275      -0.02477141      -0.05147009
C       -2.43921027       0.88629180       0.99098577      -0.38823614      -0.17085382       0.77348237      -0.09933784       0.08353161      -0.08913477
O       -1.39041563       0.88747561       1.59312297      -1.05498439      -0.77779642       0.44417475      -0.01789634       0.00481695       0.01644471
C       -2.73189011       0.00181218      -0.17298000      -0.17637512       0.49231595      -0.42552323      -0.01206762      -0.06001733      -0.01440945
H       -5.78181659       2.47864093      -0.44952383      -0.06643646      -0.50318123       0.07505581       0.04254957       0.03370719       0.08428034
H       -4.21392682       4.46720131       3.41754390       0.07497030       0.18255257      -0.18506529      -0.06923473      -0.02493382      -0.08234105
H       -5.94616035       4.42873355       4.43993414      -0.04947396       0.59940925       0.08589182       0.28319694       0.11970682       1.13139699
H       -5.44991530       2.05307061       4.30168636       0.27761236      -0.42852372       0.52426225      -0.08538436       0.04981550      -0.00457954
H       -5.94718651       2.04999692       2.59646245       0.04198112       0.01108095       0.09251108       0.00281325       0.08427225       0.06874379
H       -2.96552551       2.31793106       3.43906932       0.30688560       0.06238183       0.31134417      -0.01932622       0.07588647       0.01316773
H       -3.77265664       0.78018944       3.29203624       0.12108901       0.57275038       0.47888605      -0.06725308      -0.07674558      -0.04856569
H       -1.81902004      -0.36584342      -0.65839911       0.21707340      -0.44014368      -0.26785217       0.07325683       0.04458127       0.00882844
H       -3.30246699      -0.88905258       0.12748443      -0.58700340       0.42413346       0.34006614      -0.03154587      -0.00509436       0.09225246
H       -3.35953705       0.49297315      -0.93757837      -0.18431692       0.41068039      -0.29081635       0.02842522       0.06028858       0.01381264
O       -4.82497317       1.47426496       0.81072232       0.95385277      -2.38963367       1.18904047       0.06976887      -0.10294709      -0.03116732
O       -4.84583589       2.10454998      -0.46782986       1.20508298      -0.84935818      -2.33135749      -0.04317881       0.03814405      -0.12206678
O       -7.01935962       5.35281109       4.72987439       1.53481681       0.16917955       2.12177619       1.84844284      -1.55031071      -2.20840768
O       -7.10682492       5.56065433       3.35712183       0.13969279       0.38592104       0.75718717       0.14330736      -0.09226087       0.13672998
