22
Properties=species:S:1:pos:R:3 energy=-1891.90966387418 pbc="F F F"
O       -0.05414300       6.65769600       3.77100000
C        0.22722500       5.49467900       3.58100700
C        0.84302700       4.63661200       4.65748400
C        1.10873800       3.19990600       4.20551200
C        1.67532700       2.33017900       5.33781500
C        0.65351400       1.96321600       6.36643400
C        0.82391200       1.06146600       7.33874900
O        1.93792300       0.26540800       7.64113800
O        3.03869300       0.54717500       6.78450100
C       -0.17561000       0.64633200       8.36909700
H        0.04389100       5.01123400       2.60795400
H        1.78063500       5.11522500       5.01386200
H        0.18639900       4.64869700       5.55499800
H        0.17759500       2.74196800       3.81610500
H        1.82392000       3.19949800       3.35877300
H        2.11077600       1.40131800       4.90230700
H        2.52833400       2.84669100       5.82577400
H        3.68987600       0.89459000       7.46517900
H       -0.30135000       2.48372600       6.28955800
H       -0.45276400       1.48905900       9.01809300
H       -1.09064500       0.25722900       7.89895800
H        0.21466800      -0.15351000       9.02147500
22
Properties=species:S:1:pos:R:3 energy=-1891.8766505776061 pbc="F F F"
O       -0.09175764       6.63317102       3.75251292
C        0.20528986       5.47296943       3.56986968
C        0.85158662       4.64338100       4.64783372
C        1.12704448       3.20189254       4.21333301
C        1.68368448       2.35039194       5.36343729
C        0.65175381       1.98832662       6.38255592
C        0.81326693       1.06985657       7.34075053
O        1.90459973       0.24425926       7.59235114
O        3.03246555       0.50353653       6.77521074
C       -0.17668368       0.64115559       8.37259552
H        0.01949506       4.97163113       2.60711312
H        1.78515831       5.14221360       4.97418582
H        0.21180311       4.66920600       5.55659543
H        0.20325339       2.73337632       3.81724803
H        1.85494472       3.19375688       3.37865749
H        2.13658117       1.42273619       4.94387085
H        2.52260368       2.88331811       5.85787263
H        3.67893957       0.89837108       7.41028159
H       -0.29472029       2.51807352       6.31318753
H       -0.51089977       1.46568289       8.99556497
H       -1.05164565       0.19774647       7.91018722
H        0.23317756      -0.10665866       9.05055783
22
Properties=species:S:1:pos:R:3 energy=-1891.7886939559207 pbc="F F F"
O       -0.12912083       6.60743899       3.73449814
C        0.18375819       5.45044100       3.55938423
C        0.86010493       4.64992198       4.63790182
C        1.14572327       3.20411635       4.22165972
C        1.69190207       2.37120622       5.38924571
C        0.65003278       2.01312107       6.39864692
C        0.80271590       1.07815499       7.34230063
O        1.87104498       0.22505947       7.54330371
O        3.02433969       0.46111480       6.76560733
C       -0.17734035       0.63606185       8.37587604
H       -0.00438205       4.93115474       2.60745064
H        1.78925910       5.16804357       4.93394085
H        0.23723571       4.69003202       5.55730462
H        0.22975793       2.72471068       3.81904431
H        1.88630935       3.18877781       3.39936595
H        2.16210344       1.44529683       4.98622140
H        2.51612268       2.92053719       5.88985523
H        3.66635362       0.89981347       7.35431325
H       -0.28817817       2.55210669       6.33714302
H       -0.56678670       1.44070869       8.97254082
H       -1.01131593       0.14037413       7.92179235
H        0.25030141      -0.05979853       9.07837634
22
Properties=species:S:1:pos:R:3 energy=-1891.661518877359 pbc="F F F"
O       -0.16620591       6.58053402       3.71696603
C        0.16264107       5.42712065       3.54955169
C        0.86857960       4.65622393       4.62770494
C        1.16475218       3.20657750       4.23048001
C        1.69996999       2.39259986       5.41521993
C        0.64834873       2.03760023       6.41469516
C        0.79226496       1.08636735       7.34339823
O        1.83729423       0.20776985       7.49404167
O        3.01435809       0.41988437       6.75568424
C       -0.17757630       0.63105922       8.37892673
H       -0.02772397       4.88985049       2.60895666
H        1.79294885       5.19269782       4.89317390
H        0.26267330       4.71114278       5.55713041
H        0.25708141       2.71598812       3.82149251
H        1.91797784       3.18456240       3.42086964
H        2.18731895       1.46897016       5.02931131
H        2.50890650       2.95831184       5.92169454
H        3.65212244       0.89897282       7.29735259
H       -0.28173380       2.58580440       6.36139547
H       -0.62039420       1.41420769       8.94904746
H       -0.96971995       0.08514064       7.93375358
H        0.26605700      -0.01299213       9.10492630
22
Properties=species:S:1:pos:R:3 energy=-1891.5092952935304 pbc="F F F"
O       -0.20298624       6.55249024       3.69992698
C        0.14194958       5.40303533       3.54037313
C        0.87700831       4.66227579       4.61725972
C        1.18410905       3.20927602       4.23978182
C        1.70787843       2.41455088       5.44133964
C        0.64669948       2.06176500       6.43068884
C        0.78192012       1.09449972       7.34404226
O        1.80338300       0.19235161       7.44461100
O        3.00256342       0.37981976       6.74543494
C       -0.17738781       0.62615614       8.38173577
H       -0.05051436       4.84776403       2.61162123
H        1.79623905       5.21615929       4.85193179
H        0.28809238       4.73250600       5.55607765
H        0.28519663       2.70722568       3.82459132
H        1.94991414       3.18111222       3.44313981
H        2.21220385       1.49372639       5.07309323
H        2.50097067       2.99660567       5.95336332
H        3.63625031       0.89590480       7.23947823
H       -0.27539731       2.61914556       6.38591589
H       -0.67169166       1.38625119       8.92511181
H       -0.92692182       0.03207466       7.94605112
H        0.28046178       0.03369802       9.13020350
22
Properties=species:S:1:pos:R:3 energy=-1891.3443324287073 pbc="F F F"
O       -0.23943517       6.52334175       3.68339138
C        0.12169480       5.37821198       3.53184961
C        0.88538875       4.66806653       4.60658280
C        1.20377167       3.21221198       4.24955304
C        1.71561758       2.43703730       5.46758453
C        0.64508286       2.08561628       6.44661614
C        0.77168742       1.10255820       7.34423167
O        1.76934678       0.17876596       7.39505768
O        2.98899834       0.34089551       6.73485288
C       -0.17677119       0.62136105       8.38429133
H       -0.07273688       4.80494099       2.61543444
H        1.79914120       5.23841088       4.81026134
H        0.31346946       4.75408942       5.55415118
H        0.31407639       2.69844039       3.82833944
H        1.98208223       3.17842887       3.46614774
H        2.23673430       1.51953577       5.11751981
H        2.49233071       3.03538227       5.98483430
H        3.61874152       0.89066509       7.18076879
H       -0.26917885       2.65210907       6.41067528
H       -0.72064850       1.35691048       8.90076078
H       -0.88298562      -0.01879518       7.95866516
H        0.29353320       0.08020939       9.15420369
22
Properties=species:S:1:pos:R:3 energy=-1891.176969804851 pbc="F F F"
O       -0.27552607       6.49312268       3.66736961
C        0.10188782       5.35267754       3.52398219
C        0.89371859       4.67358511       4.59569083
C        1.22371789       3.21538543       4.25978158
C        1.72317764       2.46003712       5.49393430
C        0.64349667       2.10915496       6.46246522
C        0.76157289       1.11054886       7.34396538
O        1.73522106       0.16697411       7.34542765
O        2.97370552       0.30308618       6.72393153
C       -0.17572273       0.61668240       8.38658157
H       -0.09437518       4.76142703       2.62038635
H        1.80166680       5.25943552       4.76820937
H        0.33878104       4.77586077       5.55135584
H        0.34369350       2.68964929       3.83273555
H        2.01444605       3.17651393       3.48986469
H        2.26088644       1.54636852       5.16254371
H        2.48300211       3.07460525       6.01608024
H        3.59960038       0.88330936       7.12130288
H       -0.26308855       2.68467383       6.43564466
H       -0.76723411       1.32625685       8.87602128
H       -0.83797547      -0.06744021       7.97157591
H        0.30528871       0.12647947       9.17692265
22
Properties=species:S:1:pos:R:3 energy=-1891.015651888985 pbc="F F F"
O       -0.31123228       6.46186715       3.65187207
C        0.08253970       5.32645896       3.51677192
C        0.90199553       4.67882051       4.58460045
C        1.24392550       3.21879642       4.27045536
C        1.73054881       2.48352836       5.52036861
C        0.64193873       2.13238194       6.47822428
C        0.75158258       1.11847779       7.34324232
O        1.70104135       0.15693726       7.29576691
O        2.95672762       0.26636629       6.71266435
C       -0.17423872       0.61212863       8.38859466
H       -0.11541291       4.71726780       2.62646705
H        1.80382732       5.27921612       4.72582271
H        0.36400363       4.79778776       5.54769649
H        0.37402075       2.68086942       3.83777833
H        2.04696957       3.17536898       3.51426193
H        2.28463642       1.57419486       5.20811758
H        2.47300042       3.11423821       6.04707386
H        3.57883116       0.87389326       7.06115913
H       -0.25713656       2.71681873       6.46079503
H       -0.81141789       1.29436161       8.85092024
H       -0.79195547      -0.11383179       7.98476356
H        0.31574576       0.17244571       9.19835615
22
Properties=species:S:1:pos:R:3 energy=-1890.8671222231937 pbc="F F F"
O       -0.34652717       6.42960927       3.63690913
C        0.06366154       5.29958319       3.51021987
C        0.91021723       4.68376168       4.57332831
C        1.26437235       3.22244500       4.28156229
C        1.73772129       2.50748904       5.54686718
C        0.64040686       2.15529812       6.49388150
C        0.74172249       1.12635106       7.34206145
O        1.66684313       0.14861664       7.24612140
O        2.93810730       0.23071039       6.70104481
C       -0.17231546       0.60770818       8.39031878
H       -0.13583373       4.67250894       2.63366661
H        1.80563427       5.29773562       4.68314816
H        0.38911373       4.81983813       5.54317797
H        0.40503095       2.67211780       3.84346648
H        2.07961674       3.17499561       3.53931070
H        2.30796040       1.60298503       5.25419407
H        2.46234112       3.15424475       6.07778792
H        3.55643815       0.86247248       7.00041614
H       -0.25133302       2.74852268       6.48609740
H       -0.85316926       1.26129603       8.82548455
H       -0.74498971      -0.15794126       7.99820831
H        0.32492180       0.21804561       9.21849996
22
Properties=species:S:1:pos:R:3 energy=-1890.7366419449856 pbc="F F F"
O       -0.38138408       6.39638317       3.62249118
C        0.04526441       5.27207716       3.50432708
C        0.91838138       4.68839758       4.56189105
C        1.28503624       3.22633122       4.29309027
C        1.74468526       2.53189718       5.57340967
C        0.63889888       2.17790439       6.50942504
C        0.73199868       1.13417476       7.34042168
O        1.63266192       0.14197345       7.19653712
O        2.91788724       0.19609301       6.68906637
C       -0.16994924       0.60342949       8.39174210
H       -0.15562128       4.62719609       2.64197510
H        1.80709913       5.31497692       4.64023256
H        0.41408785       4.84197960       5.53780513
H        0.43669688       2.66341147       3.84979868
H        2.11235152       3.17539542       3.56498229
H        2.33083452       1.63270924       5.30072584
H        2.45103976       3.19458848       6.10819517
H        3.53242565       0.84910269       6.93915253
H       -0.24568807       2.77976459       6.51152279
H       -0.89245761       1.22713142       8.79974113
H       -0.69714230      -0.19973997       8.01189036
H        0.33283428       0.26321664       9.23734985
22
Properties=species:S:1:pos:R:3 energy=-1890.6281437405619 pbc="F F F"
O       -0.41577638       6.36222296       3.60862862
C        0.02735940       5.24396783       3.49909463
C        0.92648565       4.69271719       4.55030531
C        1.30589499       3.23045514       4.30502722
C        1.75143094       2.55673078       5.59997578
C        0.63741260       2.20020164       6.52484311
C        0.72241717       1.14195498       7.33832195
O        1.59853320       0.13696890       7.14706001
O        2.89611008       0.16248870       6.67672249
C       -0.16713635       0.59930100       8.39285279
H       -0.17475923       4.58137491       2.65138260
H        1.80823340       5.33092294       4.59712272
H        0.43890248       4.86417991       5.53158280
H        0.46899137       2.65476748       3.85677362
H        2.14513788       3.17656999       3.59124795
H        2.35323492       1.66333774       5.34766554
H        2.43911183       3.23523298       6.13826834
H        3.50679795       0.83383954       6.87744692
H       -0.24021186       2.81052335       6.53704219
H       -0.92925236       1.19193908       8.77371691
H       -0.64847735      -0.23919927       8.02578992
H        0.33950066       0.30789627       9.25490159
22
Properties=species:S:1:pos:R:3 energy=-1890.5442755815723 pbc="F F F"
O       -0.44967742       6.32716275       3.59533182
C        0.00995757       5.21528213       3.49452356
C        0.93452775       4.69670945       4.53858773
C        1.32692642       3.23481680       4.31736105
C        1.75794851       2.58196787       5.62654519
C        0.63594585       2.22219077       6.54012386
C        0.71298400       1.14969779       7.33576120
O        1.56449247       0.13356421       7.09773606
O        2.87281851       0.12987199       6.66400664
C       -0.16387308       0.59533115       8.39363901
H       -0.19323123       4.53509104       2.66187918
H        1.80904856       5.34555661       4.55386547
H        0.46353415       4.88640677       5.52451585
H        0.50188719       2.64620284       3.86438999
H        2.17793977       3.17852089       3.61807894
H        2.37513777       1.69484074       5.39496582
H        2.42657286       3.27614187       6.16798017
H        3.47955933       0.81673871       6.81537793
H       -0.23491452       2.84077785       6.56262662
H       -0.96352289       1.15579028       8.74743878
H       -0.59905894      -0.27629051       8.03988717
H        0.34493837       0.35202198       9.27115095
22
Properties=species:S:1:pos:R:3 energy=-1890.4863518743707 pbc="F F F"
O       -0.48306056       6.29123667       3.58261117
C       -0.00692998       5.18604700       3.49061494
C        0.94250533       4.70036334       4.52675497
C        1.34810836       3.23941627       4.33007966
C        1.76422817       2.60758645       5.65309760
C        0.63449644       2.24387268       6.55525549
C        0.70370519       1.15740927       7.33273837
O        1.53057524       0.13172058       7.04861123
O        2.84805518       0.09821743       6.65091227
C       -0.16015574       0.59152840       8.39408895
H       -0.21102094       4.48839012       2.67345491
H        1.80955612       5.35886085       4.51050761
H        0.48795934       4.90862792       5.51660911
H        0.53535716       2.63773461       3.87264647
H        2.21072114       3.18124973       3.64544654
H        2.39651921       1.72718848       5.44257934
H        2.41343837       3.31727875       6.19730343
H        3.45071409       0.79785587       6.75302417
H       -0.22980619       2.87050701       6.58824708
H       -0.99523862       1.11875633       8.72093367
H       -0.54895120      -0.31098504       8.05416232
H        0.34916488       0.39553125       9.28609371
22
Properties=species:S:1:pos:R:3 energy=-1890.454285277774 pbc="F F F"
O       -0.51589915       6.25447884       3.57047706
C       -0.02329217       5.15628941       3.48736983
C        0.95041608       4.70366783       4.51482365
C        1.36941863       3.24425359       4.34317096
C        1.77026013       2.63356455       5.67961269
C        0.63306219       2.26524826       6.57022618
C        0.69458677       1.16509552       7.32925238
O        1.49681700       0.13139922       6.99973149
O        2.82186276       0.06749956       6.63743286
C       -0.15598062       0.58790116       8.39419076
H       -0.22811199       4.44131782       2.68609988
H        1.80976757       5.37081857       4.46709598
H        0.51215456       4.93081108       5.50786742
H        0.56937407       2.62937981       3.88154175
H        2.24344597       3.18475809       3.67332199
H        2.41735539       1.76035118       5.49045875
H        2.39972386       3.35860721       6.22621084
H        3.42026652       0.77724669       6.69046427
H       -0.22489702       2.89968973       6.61387458
H       -1.02436895       1.08090853       8.69422849
H       -0.49821820      -0.34325421       8.06859557
H        0.35219763       0.43836155       9.29972562
22
Properties=species:S:1:pos:R:3 energy=-1890.4465939838478 pbc="F F F"
O       -0.54816654       6.21692338       3.55893987
C       -0.03911793       5.12603627       3.48478928
C        0.95825770       4.70661186       4.50281043
C        1.39083503       3.24932882       4.35662287
C        1.77603456       2.65988018       5.70607015
C        0.63164091       2.28631841       6.58502410
C        0.68563479       1.17276261       7.32530217
O        1.46325324       0.13256135       6.95114281
O        2.79428391       0.03769291       6.62356187
C       -0.15134400       0.58445790       8.39393262
H       -0.24448806       4.39391976       2.69980414
H        1.80969438       5.38141270       4.42367738
H        0.53609633       4.95292398       5.49829564
H        0.60391073       2.62115548       3.89107452
H        2.27607820       3.18904755       3.70167658
H        2.43762245       1.79429907       5.53855670
H        2.38544485       3.40009087       6.25467515
H        3.38822090       0.75496684       6.62777682
H       -0.22019715       2.92830490       6.63948014
H       -1.05088329       1.04231816       8.66735015
H       -0.44692407      -0.37306936       8.08316712
H        0.35405407       0.48045036       9.31204247
22
Properties=species:S:1:pos:R:3 energy=-1890.4605546888668 pbc="F F F"
O       -0.57983609       6.17860439       3.54801000
C       -0.05439618       5.09531456       3.48287435
C        0.96602784       4.70918442       4.49073196
C        1.41233540       3.25464200       4.37042329
C        1.78154169       2.68651135       5.73244966
C        0.63023042       2.30708402       6.59963744
C        0.67685527       1.18041662       7.32088668
O        1.42991947       0.13516818       6.90289117
O        2.76536130       0.00877202       6.60929276
C       -0.14624218       0.58120705       8.39330270
H       -0.26013280       4.34624161       2.71455779
H        1.80934807       5.39062615       4.38029865
H        0.55976113       4.97493434       5.48789862
H        0.63893993       2.61307866       3.90124347
H        2.30858179       3.19411971       3.73048155
H        2.45729656       1.82900238       5.58682584
H        2.37061686       3.44169331       6.28266911
H        3.35458152       0.73107198       6.56504046
H       -0.21571673       2.95633142       6.66503475
H       -1.07475103       1.00305652       8.64032557
H       -0.39513290      -0.40040184       8.09785716
H        0.35475165       0.52173516       9.32304003
22
Properties=species:S:1:pos:R:3 energy=-1890.4925092011365 pbc="F F F"
O       -0.61088117       6.13955601       3.53769781
C       -0.06911583       5.06415119       3.48162610
C        0.97372420       4.71137445       4.47860486
C        1.43389756       3.26019320       4.38456014
C        1.78677169       2.71343608       5.75873092
C        0.62882855       2.32754598       6.61405437
C        0.66825424       1.18806363       7.31600484
O        1.39685119       0.13918092       6.85502252
O        2.73513760      -0.01928857       6.59461899
C       -0.14067147       0.57815705       8.39228917
H       -0.27502985       4.29832900       2.73035090
H        1.80874011       5.39844185       4.33700661
H        0.58312548       4.99680990       5.47668118
H        0.67443447       2.60516638       3.91204728
H        2.34092071       3.19997614       3.75970818
H        2.47635385       1.86443133       5.63521884
H        2.35525541       3.48337814       6.31016545
H        3.31935268       0.70561779       6.50233380
H       -0.21146588       2.98374820       6.69050943
H       -1.09594158       0.96319490       8.61318165
H       -0.34290879      -0.42522300       8.11264590
H        0.35430782       0.56215342       9.33271406
22
Properties=species:S:1:pos:R:3 energy=-1890.538260921684 pbc="F F F"
O       -0.64127512       6.09981234       3.52801372
C       -0.08326581       5.03257313       3.48104559
C        0.98134446       4.71317093       4.46644580
C        1.45549931       3.26598246       4.39902132
C        1.79171476       2.74063239       5.78489360
C        0.62743310       2.34770520       6.62826308
C        0.65983774       1.19570974       7.31065558
O        1.36408388       0.14456078       6.80758284
O        2.70365546      -0.04651431       6.57953402
C       -0.13462814       0.57531635       8.39088021
H       -0.28916287       4.25022758       2.74717353
H        1.80788200       5.40484271       4.29384806
H        0.60616589       5.01851838       5.46464820
H        0.71036715       2.59743567       3.92348464
H        2.37305891       3.20661844       3.78932773
H        2.49477047       1.90055616       5.68368834
H        2.33937601       3.52510897       6.33713694
H        3.28253867       0.67865993       6.43973545
H       -0.20745476       3.01053414       6.71587519
H       -1.11442434       0.92280460       8.58594531
H       -0.29031584      -0.44750419       8.12751353
H        0.35274004       0.60164261       9.34106033
22
Properties=species:S:1:pos:R:3 energy=-1890.5934564409174 pbc="F F F"
O       -0.67099129       6.05940751       3.51896809
C       -0.09683503       5.00060731       3.48113388
C        0.98888630       4.71456282       4.45427140
C        1.47711848       3.27200983       4.41379475
C        1.79636112       2.76807828       5.81091741
C        0.62604190       2.36756257       6.64225175
C        0.65161180       1.20336102       7.30483784
O        1.33165305       0.15126896       6.76061810
O        2.67095755      -0.07293066       6.56403133
C       -0.12810849       0.57269338       8.38906397
H       -0.30251551       4.20198300       2.76501576
H        1.80678524       5.40981165       4.25086984
H        0.62885885       5.04002751       5.45180449
H        0.74671078       2.58990357       3.93555424
H        2.40496036       3.21404819       3.81931145
H        2.51252259       1.93734709       5.73218700
H        2.32299418       3.56684939       6.36355630
H        3.24414377       0.65025408       6.37732404
H       -0.20369350       3.03666813       6.74110303
H       -1.13016873       0.88195690       8.55864347
H       -0.23741816      -0.46721677       8.14244026
H        0.35006574       0.64014022       9.34807462
22
Properties=species:S:1:pos:R:3 energy=-1890.6538700489282 pbc="F F F"
O       -0.70000306       6.01837564       3.51057131
C       -0.10981242       4.96828068       3.48189202
C        0.99634740       4.71553907       4.44209831
C        1.49873290       3.27827537       4.42886833
C        1.80070094       2.79575178       5.83678201
C        0.62465277       2.38711899       6.65600855
C        0.64358245       1.21102355       7.29855056
O        1.29959420       0.15926669       6.71417426
O        2.63708654      -0.09856310       6.54810437
C       -0.12110882       0.57029659       8.38682864
H       -0.31507144       4.15364091       2.78386767
H        1.80546131       5.41333160       4.20811875
H        0.65118087       5.06130501       5.43815493
H        0.78343816       2.58258712       3.94825476
H        2.43658900       3.22226698       3.84963062
H        2.52958634       1.97477435       5.78066746
H        2.30612543       3.60856301       6.38939628
H        3.20417228       0.62045590       6.31517817
H       -0.20019226       3.06212909       6.76616396
H       -1.14314413       0.84072311       8.53130304
H       -0.18427984      -0.48433206       8.15740628
H        0.34630239       0.67758372       9.35375270
22
Properties=species:S:1:pos:R:3 energy=-1890.715587684275 pbc="F F F"
O       -0.72828376       5.97675084       3.50283378
C       -0.12218689       4.93562018       3.48332108
C        1.00372544       4.71608867       4.42994319
C        1.52032038       3.28477913       4.44422997
C        1.80472443       2.82363090       5.86246711
C        0.62326351       2.40637534       6.66952167
C        0.63575572       1.21870341       7.29179266
O        1.26794282       0.16851516       6.66829730
O        2.60208509      -0.12343707       6.53174661
C       -0.11362543       0.56813442       8.38416238
H       -0.32681430       4.10524696       2.80371933
H        1.80392171       5.41538547       4.16564163
H        0.67310845       5.08231862       5.42370434
H        0.82052207       2.57550335       3.96158490
H        2.46790880       3.23127640       3.88025650
H        2.54593787       2.01280817       5.82908239
H        2.28878528       3.65021342       6.41462963
H        3.16262848       0.58932106       6.25337647
H       -0.19696116       3.08689590       6.79102899
H       -1.15331996       0.79917452       8.50395093
H       -0.13096500      -0.49882144       8.17239180
H        0.34146744       0.71391059       9.35809033
22
Properties=species:S:1:pos:R:3 energy=-1890.7751585089723 pbc="F F F"
O       -0.75580676       5.93456724       3.49576587
C       -0.13394737       4.90265275       3.48542211
C        1.01101810       4.71620056       4.41782266
C        1.54185874       3.29152116       4.45986759
C        1.80842178       2.85169366       5.88795239
C        0.62187195       2.42533253       6.68277928
C        0.62813764       1.22640670       7.28456309
O        1.23673441       0.17897560       6.62303319
O        2.56599587      -0.14757804       6.51495150
C       -0.10565460       0.56621531       8.38105336
H       -0.33772775       4.05684678       2.82456082
H        1.80217793       5.41595619       4.12348529
H        0.69461810       5.10303605       5.40845758
H        0.85793534       2.56866930       3.97554334
H        2.49888372       3.24107803       3.91116035
H        2.56155334       2.05141877       5.87738443
H        2.27098924       3.69176423       6.43922909
H        3.11951667       0.55690523       6.19199755
H       -0.19401035       3.11094747       6.81566913
H       -1.16066561       0.75738242       8.47661406
H       -0.07753773      -0.51065623       8.18737700
H        0.33557832       0.74905829       9.36108330
22
Properties=species:S:1:pos:R:3 energy=-1890.829774437996 pbc="F F F"
O       -0.78254541       5.89185894       3.48937798
C       -0.14508277       4.86940535       3.48819617
C        1.01822306       4.71586371       4.40575338
C        1.56332580       3.29850152       4.47576909
C        1.81178320       2.87991807       5.91321754
C        0.62047591       2.44399145       6.69576957
C        0.62073425       1.23413948       7.27686078
O        1.20600447       0.19060922       6.57842789
O        2.52886153      -0.17101147       6.49771253
C       -0.09719262       0.56454770       8.37748976
H       -0.34779544       4.00848603       2.84638220
H        1.80024145       5.41502667       4.08169656
H        0.71568633       5.12342505       5.39241949
H        0.89565074       2.56210200       3.99012877
H        2.52947772       3.25167345       3.94231344
H        2.57640889       2.09057639       5.92552625
H        2.25275284       3.73317905       6.46316741
H        3.07484114       0.52326408       6.13112003
H       -0.19134997       3.13426270       6.84005538
H       -1.16515050       0.71541811       8.44931933
H       -0.02406212      -0.51980780       8.20234210
H        0.32865250       0.78296432       9.36272736
22
Properties=species:S:1:pos:R:3 energy=-1890.877452533104 pbc="F F F"
O       -0.80847307       5.84866007       3.48368049
C       -0.15558201       4.83590490       3.49164433
C        1.02533801       4.71506709       4.39375199
C        1.58469937       3.30572025       4.49192238
C        1.81479887       2.90828214       5.93824224
C        0.61907320       2.46235300       6.70848072
C        0.61355158       1.24190785       7.26868466
O        1.17578850       0.20337721       6.53452737
O        2.49072476      -0.19376282       6.48002313
C       -0.08823580       0.56314003       8.37345974
H       -0.35700102       3.96021036       2.86917357
H        1.79812378       5.41257983       4.04032224
H        0.73628963       5.14345332       5.37559492
H        0.93364109       2.55581849       4.00533987
H        2.55965475       3.26306427       3.97368702
H        2.59048068       2.13025124       5.97346049
H        2.23409158       3.77442146       6.48641732