22
Properties=species:S:1:pos:R:3:momenta:R:3:forces:R:3 pbc="F F F"
O        0.16285034       1.15796128       3.85609467       0.32913818      -1.38117455       0.07378604       0.19762297      -0.01883617      -0.04087472
C        1.27630735       0.95248080       4.28214871       1.02128139       0.02776303      -0.02182963      -0.09227647      -0.25171026       0.12202160
C        1.58590142       1.20227570       5.75225468      -1.81392294      -0.38700802      -0.36265916      -0.00592428       0.06319370       0.00792402
C        2.61593643       0.25481205       6.35340264      -0.30881884      -1.32920828       0.30753278      -0.07503623       0.02435830      -0.08006677
C        2.08043384      -0.56355917       7.56038259      -0.15619674       1.14490132      -1.30024728       0.02906485       0.02257743       0.22232002
C        1.09374536      -1.54032064       7.10820106      -1.31067118      -0.55642384       0.33445043      -0.12456707       0.17642968      -0.29990212
C        1.42846711      -2.95481774       6.74792164      -0.66701618      -0.08277918      -0.17653371       0.21586390       0.20183150      -0.24018614
O        2.48828380      -2.93460013       6.15123882      -2.40869317       1.48482979      -0.07533730       0.07529028      -0.34224543      -0.24045419
O        2.47956891      -5.19781146       4.73001767      -1.02996450      -0.06964735       1.22878200      -0.19209682       0.49170301       0.32858497
C        0.45679992      -4.03204532       6.94196665      -1.23479017       0.56124352       1.12732822       0.02142540       0.03915499       0.09489226
H        2.10873206       0.57242053       3.64634346      -0.36178030      -0.32912989      -0.02760813      -0.24508577       0.17005067       0.23033475
H        1.91268579       2.26050739       5.82392134      -0.02015399       0.17028982      -0.20232322       0.11446387       0.07474654       0.07188656
H        0.65981401       1.19194978       6.37045192       0.04611004      -0.13335754       0.35681057      -0.06660087       0.04806699      -0.25242619
H        2.97534105      -0.47801841       5.60615284       0.21221211       0.26224196       0.26542833       0.15927872      -0.05799932      -0.22173062
H        3.51966577       0.80830923       6.68278734       0.16054167      -0.32624058       0.03462014      -0.04607066       0.02378722       0.01560479
H        2.97568782      -1.02121330       8.03690523      -0.32206119      -0.22247974      -0.31052794      -0.03583517      -0.18959935       0.16625426
H        1.64081461       0.11946577       8.33162705      -0.09349633       0.25586866      -0.23409132       0.03823416      -0.03068653      -0.10703118
H        3.05152756      -5.19750779       3.99072705       0.07723408      -0.51664575      -0.42132828      -0.10332379       0.01902870       0.18655738
H        0.14647810      -1.14647394       6.69984162      -0.44450303       0.34941362      -0.41297938       0.12057398      -0.10242402       0.11230205
H        0.62601813      -4.82730987       6.16966290      -0.43011078       0.01058424      -0.00213846       0.19699176      -0.19280546      -0.10866451
H        0.56899465      -4.51139949       7.92255893      -0.07680531      -0.57184487       0.13349797       0.05217336      -0.18389425       0.05421723
H       -0.57972548      -3.71223663       6.84713849      -0.09734586       0.00653532      -0.13966837      -0.23416614       0.01527205      -0.02156344
