9
Properties=species:S:1:pos:R:3 energy=-723.6040390127316 pbc="F F F"
C       -7.07838621       0.68011698       1.15947014
C       -5.84538345       1.01542135       1.77564862
H       -7.88900540       0.66310967       1.90482867
H       -7.08051612      -0.32075087       0.68902261
H       -7.36400817       1.39211042       0.36294888
C       -4.73004683       1.46713603       2.12782212
H       -3.78584227       1.87407262       2.23438455
O       -5.29627185       0.24059534       3.30337844
H       -5.70659370       0.71455147       4.10779897
