24
Properties=species:S:1:pos:R:3:momenta:R:3:forces:R:3 pbc="F F F"
O       -1.70102517      -0.13876358       1.77834644       0.57203960       0.80162686       0.16813080       0.03661525      -0.10607950      -0.01962583
C       -2.42062980       0.75463541       1.69028129       0.78859141       0.78469613      -1.11009341      -0.03637481       0.00698039       0.02568184
C       -3.19987147       1.83467488       1.51524022      -0.03556898      -0.37803421       0.61647150      -0.81010442      -0.97708604       1.38185980
C       -4.62104063       1.69448515       0.98136621      -0.14915957      -0.77187716      -0.19240897       0.04918628       0.00746534      -0.04938742
C       -5.67803625       2.23175387       1.95733158      -0.55388014      -0.03037069       0.64553472       0.04089162      -0.06026864      -0.00624380
C       -6.36672448       3.49251499       1.42211956      -0.14473262       1.14556664      -0.56672478      -0.01793964      -0.05720535      -0.00413143
H       -7.30801052       3.71411511       1.97695187       0.00290123      -0.07441454      -0.28564050      -0.00531999      -0.02817548       0.09408544
C       -5.44728128       4.73500107       1.49144112      -0.01257397       0.26946257      -0.19460626      -0.05139967      -0.06539799      -0.04633274
O       -4.77164076       4.89339794       2.48159416       0.42648441      -0.81793407       0.99804053       0.07895003       0.01035356       0.01128905
C       -5.52627407       5.66843654       0.34022919       0.17705274      -0.46597322       0.36272970       0.02442069       0.00936063      -0.01875997
H       -7.75552079       1.83624545      -0.46083706      -0.31174523      -0.01568536      -0.28315964       0.00501062       0.01764976      -0.00825729
H       -3.08903529       2.71155663       2.20655333       0.01376770      -0.24052638      -0.04329590       0.00640107      -0.02257881       0.00980659
H       -2.59745132       2.69958789       0.68197919       0.09273012       0.67470741      -0.11415283       0.44926710       1.71386130      -1.65572749
H       -4.66789816       2.27843335       0.02045215      -0.02625066       0.08083836       0.08810782      -0.00584985      -0.00044342      -0.07694536
H       -4.85282552       0.65356312       0.69383384      -0.16075640       0.04610215      -0.07321251       0.06517239      -0.00437536       0.05905078
H       -6.44275536       1.45731170       2.15243021      -0.10494122      -0.10093482       0.10413507      -0.03351931      -0.03956232      -0.02970782
H       -5.24075058       2.46230185       2.95083979      -0.07037281      -0.17253737      -0.01492821       0.03725918       0.00400348       0.02136102
H       -4.74860689       6.44543161       0.38088773      -0.20003981      -0.00867819      -0.03709319       0.02259099       0.01781938       0.02892114
H       -5.38909743       5.13939051      -0.62245899       0.00172292       0.18134828      -0.04344224       0.04377935      -0.04620297      -0.00626487
H       -6.50660822       6.16032968       0.27995882       0.12356918      -0.11301643      -0.11603319      -0.01494266       0.02327522      -0.00767412
O       -6.71482828       3.31642308       0.02326897       0.91935094       0.53583174      -0.28589009       0.00082119       0.06719535      -0.04689727
O       -7.98989952       2.68272601       0.02349194      -1.15729410      -0.21423240       0.52333905      -0.02628921       0.00483471      -0.01347580
O       -2.97598847       3.18991553      -1.19908898       0.03024669      -0.33045184      -0.07758792      -0.02327304      -0.01346028       0.01493460
O       -2.57752101       3.71718310      -0.11589961       0.05018934       1.25056684       0.82408422       0.16464684      -0.46196297       0.34244097
