 Entering Gaussian System, Link 0=g09
 Initial command:
 /apps/applications/gaussian/G09.D01/2/default/g09/l1.exe "/nobackup/chmrsh/Scratch/Gau-112835.inp" -scrdir="/nobackup/chmrsh/Scratch/"
 Entering Link 1 = /apps/applications/gaussian/G09.D01/2/default/g09/l1.exe PID=    112836.
  
 Copyright (c) 1988,1990,1992,1993,1995,1998,2003,2009,2013,
            Gaussian, Inc.  All Rights Reserved.
  
 This is part of the Gaussian(R) 09 program.  It is based on
 the Gaussian(R) 03 system (copyright 2003, Gaussian, Inc.),
 the Gaussian(R) 98 system (copyright 1998, Gaussian, Inc.),
 the Gaussian(R) 94 system (copyright 1995, Gaussian, Inc.),
 the Gaussian 92(TM) system (copyright 1992, Gaussian, Inc.),
 the Gaussian 90(TM) system (copyright 1990, Gaussian, Inc.),
 the Gaussian 88(TM) system (copyright 1988, Gaussian, Inc.),
 the Gaussian 86(TM) system (copyright 1986, Carnegie Mellon
 University), and the Gaussian 82(TM) system (copyright 1983,
 Carnegie Mellon University). Gaussian is a federally registered
 trademark of Gaussian, Inc.
  
 This software contains proprietary and confidential information,
 including trade secrets, belonging to Gaussian, Inc.
  
 This software is provided under written license and may be
 used, copied, transmitted, or stored only in accord with that
 written license.
  
 The following legend is applicable only to US Government
 contracts under FAR:
  
                    RESTRICTED RIGHTS LEGEND
  
 Use, reproduction and disclosure by the US Government is
 subject to restrictions as set forth in subparagraphs (a)
 and (c) of the Commercial Computer Software - Restricted
 Rights clause in FAR 52.227-19.
  
 Gaussian, Inc.
 340 Quinnipiac St., Bldg. 40, Wallingford CT 06492
  
  
 ---------------------------------------------------------------
 Warning -- This program may not be used in any manner that
 competes with the business of Gaussian, Inc. or will provide
 assistance to any competitor of Gaussian, Inc.  The licensee
 of this program is prohibited from giving any competitor of
 Gaussian, Inc. access to this program.  By using this program,
 the user acknowledges that Gaussian, Inc. is engaged in the
 business of creating and licensing software in the field of
 computational chemistry and represents and warrants to the
 licensee that it is not a competitor of Gaussian, Inc. and that
 it will not use this program in any manner prohibited above.
 ---------------------------------------------------------------
  

 Cite this work as:
 Gaussian 09, Revision D.01,
 M. J. Frisch, G. W. Trucks, H. B. Schlegel, G. E. Scuseria, 
 M. A. Robb, J. R. Cheeseman, G. Scalmani, V. Barone, B. Mennucci, 
 G. A. Petersson, H. Nakatsuji, M. Caricato, X. Li, H. P. Hratchian, 
 A. F. Izmaylov, J. Bloino, G. Zheng, J. L. Sonnenberg, M. Hada, 
 M. Ehara, K. Toyota, R. Fukuda, J. Hasegawa, M. Ishida, T. Nakajima, 
 Y. Honda, O. Kitao, H. Nakai, T. Vreven, J. A. Montgomery, Jr., 
 J. E. Peralta, F. Ogliaro, M. Bearpark, J. J. Heyd, E. Brothers, 
 K. N. Kudin, V. N. Staroverov, T. Keith, R. Kobayashi, J. Normand, 
 K. Raghavachari, A. Rendell, J. C. Burant, S. S. Iyengar, J. Tomasi, 
 M. Cossi, N. Rega, J. M. Millam, M. Klene, J. E. Knox, J. B. Cross, 
 V. Bakken, C. Adamo, J. Jaramillo, R. Gomperts, R. E. Stratmann, 
 O. Yazyev, A. J. Austin, R. Cammi, C. Pomelli, J. W. Ochterski, 
 R. L. Martin, K. Morokuma, V. G. Zakrzewski, G. A. Voth, 
 P. Salvador, J. J. Dannenberg, S. Dapprich, A. D. Daniels, 
 O. Farkas, J. B. Foresman, J. V. Ortiz, J. Cioslowski, 
 and D. J. Fox, Gaussian, Inc., Wallingford CT, 2013.
 
 ******************************************
 Gaussian 09:  ES64L-G09RevD.01 24-Apr-2013
                 6-Jan-2021 
 ******************************************
 ----------------------------------------------------------------------
 #P b3lyp/3-21G scf=qc opt(calcall, ts, noeigentest, cartesian,maxcycle
 =100)
 ----------------------------------------------------------------------
 1/5=1,6=100,10=4,11=1,14=-1,18=10,26=3,38=1/1,3;
 2/12=2,17=6,18=5,29=2,40=1/2;
 3/5=5,11=2,16=1,25=1,30=1,71=2,74=-5,140=1/1,2,3;
 4//1;
 5/5=2,8=3,38=5/8;
 8/6=4,10=90,11=11/1;
 11/6=1,8=1,9=11,15=111,16=1/1,2,10;
 10/6=1/2;
 6/7=2,8=2,9=2,10=2,18=1,28=1/1;
 7/7=1,10=1,25=1/1,2,3,16;
 1/5=1,6=100,10=4,11=1,14=-1,18=10,26=3/3(3);
 2/29=1/2;
 7/7=1,8=1,9=1,25=1,44=-1/16;
 99/12=1/99;
 2/29=1/2;
 3/5=5,11=2,16=1,25=1,30=1,71=2,74=-5,140=1/1,2,3;
 4/5=5,16=3,69=1/1;
 5/5=2,8=3,38=5/8;
 8/6=4,10=90,11=11/1;
 11/6=1,8=1,9=11,15=111,16=1/1,2,10;
 10/6=1/2;
 7/7=1,10=1,25=1/1,2,3,16;
 1/5=1,6=100,10=4,11=1,14=-1,18=10,26=3/3(-8);
 2/29=1/2;
 6/7=2,8=2,9=2,10=2,18=1,19=2,28=1/1;
 7/7=1,8=1,9=1,25=1,44=-1/16;
 99/12=1/99;
 Leave Link    1 at Wed Jan  6 11:30:09 2021, MaxMem=           0 cpu:         0.1
 (Enter /apps/applications/gaussian/G09.D01/2/default/g09/l101.exe)
 ------------------------------
 Gaussian input prepared by ASE
 ------------------------------
 Symbolic Z-matrix:
 Charge =  0 Multiplicity = 2
 C                    -1.13642   4.85134   4.05565 
 C                    -1.86669   3.9841    4.90487 
 H                    -1.73012   5.14039   3.16781 
 H                    -0.19385   4.39723   3.70081 
 H                    -0.86908   5.79206   4.57547 
 C                    -2.52197   3.21025   5.72523 
 H                    -2.478     3.20731   6.81333 
 O                    -3.41879   2.23132   5.33507 
 H                    -3.46751   2.14647   4.35251 
 
 NAtoms=      9 NQM=        9 NQMF=       0 NMMI=      0 NMMIF=      0
                NMic=       0 NMicF=      0.
                    Isotopes and Nuclear Properties:
 (Nuclear quadrupole moments (NQMom) in fm**2, nuclear magnetic moments (NMagM)
  in nuclear magnetons)

  Atom         1           2           3           4           5           6           7           8           9
 IAtWgt=          12          12           1           1           1          12           1          16           1
 AtmWgt=  12.0000000  12.0000000   1.0078250   1.0078250   1.0078250  12.0000000   1.0078250  15.9949146   1.0078250
 NucSpn=           0           0           1           1           1           0           1           0           1
 AtZEff=   0.0000000   0.0000000   0.0000000   0.0000000   0.0000000   0.0000000   0.0000000   0.0000000   0.0000000
 NQMom=    0.0000000   0.0000000   0.0000000   0.0000000   0.0000000   0.0000000   0.0000000   0.0000000   0.0000000
 NMagM=    0.0000000   0.0000000   2.7928460   2.7928460   2.7928460   0.0000000   2.7928460   0.0000000   2.7928460
 AtZNuc=   6.0000000   6.0000000   1.0000000   1.0000000   1.0000000   6.0000000   1.0000000   8.0000000   1.0000000
 Leave Link  101 at Wed Jan  6 11:30:10 2021, MaxMem=    33554432 cpu:         0.2
 (Enter /apps/applications/gaussian/G09.D01/2/default/g09/l103.exe)

 GradGradGradGradGradGradGradGradGradGradGradGradGradGradGradGradGradGrad
 Berny optimization.
 Initialization pass.
 No Z-matrix variables, so optimization will use Cartesian coordinates.
 Trust Radius=3.00D-01 FncErr=1.00D-07 GrdErr=1.00D-06
 Number of steps in this run=    100 maximum allowed number of steps=    100.
 Search for a saddle point of order  1.
 GradGradGradGradGradGradGradGradGradGradGradGradGradGradGradGradGradGrad

 Leave Link  103 at Wed Jan  6 11:30:10 2021, MaxMem=    33554432 cpu:         0.0
 (Enter /apps/applications/gaussian/G09.D01/2/default/g09/l202.exe)
 ---------------------------------------------------------------------------------------------------
                            Z-MATRIX (ANGSTROMS AND DEGREES)
   CD    Cent   Atom    N1       Length/X        N2       Alpha/Y        N3        Beta/Z          J
 ---------------------------------------------------------------------------------------------------
      1      1  C        0  -1.136419          4.851344          4.055647
      2      2  C        0  -1.866695          3.984097          4.904873
      3      3  H        0  -1.730116          5.140386          3.167808
      4      4  H        0  -0.193853          4.397226          3.700808
      5      5  H        0  -0.869081          5.792059          4.575471
      6      6  C        0  -2.521968          3.210252          5.725233
      7      7  H        0  -2.477996          3.207310          6.813326
      8      8  O        0  -3.418794          2.231320          5.335071
      9      9  H        0  -3.467512          2.146468          4.352514
 ---------------------------------------------------------------------------------------------------
                         Z-Matrix orientation:                         
 ---------------------------------------------------------------------
 Center     Atomic      Atomic             Coordinates (Angstroms)
 Number     Number       Type             X           Y           Z
 ---------------------------------------------------------------------
      1          6           0       -1.136419    4.851344    4.055647
      2          6           0       -1.866695    3.984097    4.904873
      3          1           0       -1.730116    5.140386    3.167808
      4          1           0       -0.193853    4.397226    3.700808
      5          1           0       -0.869081    5.792059    4.575471
      6          6           0       -2.521968    3.210252    5.725233
      7          1           0       -2.477996    3.207310    6.813326
      8          8           0       -3.418794    2.231320    5.335071
      9          1           0       -3.467512    2.146468    4.352514
 ---------------------------------------------------------------------
                    Distance matrix (angstroms):
                    1          2          3          4          5
     1  C    0.000000
     2  C    1.416547   0.000000
     3  H    1.106472   2.091185   0.000000
     4  H    1.104792   2.102105   1.787870   0.000000
     5  H    1.107534   2.091044   1.774141   1.779474   0.000000
     6  C    2.720376   1.304305   3.300435   3.305650   3.274097
     7  H    3.479579   2.149251   4.193556   4.039923   3.778562
     8  O    3.702795   2.380401   4.001416   4.214523   4.444872
     9  H    3.583082   2.498918   3.658636   4.025850   4.482397
                    6          7          8          9
     6  C    0.000000
     7  H    1.088985   0.000000
     8  O    1.383775   2.005716   0.000000
     9  H    1.977384   2.856592   0.987416   0.000000
 Stoichiometry    C3H5O(2)
 Framework group  C1[X(C3H5O)]
 Deg. of freedom    21
 Full point group                 C1      NOp   1
 Largest Abelian subgroup         C1      NOp   1
 Largest concise Abelian subgroup C1      NOp   1
                         Standard orientation:                         
 ---------------------------------------------------------------------
 Center     Atomic      Atomic             Coordinates (Angstroms)
 Number     Number       Type             X           Y           Z
 ---------------------------------------------------------------------
      1          6           0        1.898340   -0.166344    0.000427
      2          6           0        0.523354    0.174250    0.004166
      3          1           0        2.088213   -1.069860   -0.609398
      4          1           0        2.287792   -0.354684    1.017000
      5          1           0        2.512232    0.644354   -0.438362
      6          6           0       -0.730136    0.534765    0.002943
      7          1           0       -1.129731    1.547781    0.005993
      8          8           0       -1.800254   -0.342486   -0.007663
      9          1           0       -1.505817   -1.283732    0.040852
 ---------------------------------------------------------------------
 Rotational constants (GHZ):     37.7924384      4.0209952      3.7206346
 Leave Link  202 at Wed Jan  6 11:30:10 2021, MaxMem=    33554432 cpu:         0.0
 (Enter /apps/applications/gaussian/G09.D01/2/default/g09/l301.exe)
 Standard basis: 3-21G (6D, 7F)
 Ernie: Thresh=  0.10000D-02 Tol=  0.10000D-05 Strict=F.
 There are    46 symmetry adapted cartesian basis functions of A   symmetry.
 There are    46 symmetry adapted basis functions of A   symmetry.
    46 basis functions,    75 primitive gaussians,    46 cartesian basis functions
    16 alpha electrons       15 beta electrons
       nuclear repulsion energy       107.3421375089 Hartrees.
 IExCor=  402 DFT=T Ex+Corr=B3LYP ExCW=0 ScaHFX=  0.200000
 ScaDFX=  0.800000  0.720000  1.000000  0.810000 ScalE2=  1.000000  1.000000
 IRadAn=      0 IRanWt=     -1 IRanGd=            0 ICorTp=0 IEmpDi=  4
 NAtoms=    9 NActive=    9 NUniq=    9 SFac= 1.00D+00 NAtFMM=   60 NAOKFM=F Big=F
 Integral buffers will be    131072 words long.
 Raffenetti 2 integral format.
 Two-electron integral symmetry is turned on.
 Leave Link  301 at Wed Jan  6 11:30:10 2021, MaxMem=    33554432 cpu:         0.1
 (Enter /apps/applications/gaussian/G09.D01/2/default/g09/l302.exe)
 NPDir=0 NMtPBC=     1 NCelOv=     1 NCel=       1 NClECP=     1 NCelD=      1
         NCelK=      1 NCelE2=     1 NClLst=     1 CellRange=     0.0.
 One-electron integrals computed using PRISM.
 NBasis=    46 RedAO= T EigKep=  3.01D-03  NBF=    46
 NBsUse=    46 1.00D-06 EigRej= -1.00D+00 NBFU=    46
 Precomputing XC quadrature grid using
 IXCGrd= 4 IRadAn=           0 IRanWt=          -1 IRanGd=           0 AccXCQ= 0.00D+00.
 Generated NRdTot=       0 NPtTot=           0 NUsed=           0 NTot=          32
 NSgBfM=    46    46    46    46    46 MxSgAt=     9 MxSgA2=     9.
 Leave Link  302 at Wed Jan  6 11:30:10 2021, MaxMem=    33554432 cpu:         0.2
 (Enter /apps/applications/gaussian/G09.D01/2/default/g09/l303.exe)
 DipDrv:  MaxL=1.
 Leave Link  303 at Wed Jan  6 11:30:10 2021, MaxMem=    33554432 cpu:         0.0
 (Enter /apps/applications/gaussian/G09.D01/2/default/g09/l401.exe)
 ExpMin= 1.83D-01 ExpMax= 3.22D+02 ExpMxC= 3.22D+02 IAcc=1 IRadAn=         1 AccDes= 0.00D+00
 Harris functional with IExCor=  402 and IRadAn=       1 diagonalized for initial guess.
 HarFok:  IExCor=  402 AccDes= 0.00D+00 IRadAn=         1 IDoV= 1 UseB2=F ITyADJ=14
 ICtDFT=  3500011 ScaDFX=  1.000000  1.000000  1.000000  1.000000
 FoFCou: FMM=F IPFlag=           0 FMFlag=      100000 FMFlg1=           0
         NFxFlg=           0 DoJE=T BraDBF=F KetDBF=T FulRan=T
         wScrn=  0.000000 ICntrl=     500 IOpCl=  0 I1Cent=   200000004 NGrid=           0
         NMat0=    1 NMatS0=      1 NMatT0=    0 NMatD0=    1 NMtDS0=    0 NMtDT0=    0
 Petite list used in FoFCou.
 Harris En= -191.370528575577    
 JPrj=0 DoOrth=F DoCkMO=F.
 Initial guess <Sx>= 0.0000 <Sy>= 0.0000 <Sz>= 0.5000 <S**2>= 0.7500 S= 0.5000
 Leave Link  401 at Wed Jan  6 11:30:10 2021, MaxMem=    33554432 cpu:         0.2
 (Enter /apps/applications/gaussian/G09.D01/2/default/g09/l508.exe)
 Direct SCF.
 Tight linear equation convergence will be used.
 UB3LYP wavefunction.
 Quadratic Convergence SCF Method.
 Line search only if initial step raises energy.
 Integral symmetry usage will be decided dynamically.
 ReadGW:  IGet=1 IStart=         402 Next=         402 LGW=           0.
 Keep R1 and R2 ints in memory in canonical form, NReq=2054798.
 FoFCou: FMM=F IPFlag=           0 FMFlag=           0 FMFlg1=           0
         NFxFlg=           0 DoJE=F BraDBF=F KetDBF=F FulRan=T
         wScrn=  0.000000 ICntrl=     600 IOpCl=  0 I1Cent=           0 NGrid=           0
         NMat0=    1 NMatS0=   1081 NMatT0=    0 NMatD0=    1 NMtDS0=    0 NMtDT0=    0
 Symmetry not used in FoFCou.
 Iteration   1 EE= -191.284581654199                                    Grad=4.278D-01 Max rot=    3.9023 deg.
 Gradient too large for Newton-Raphson -- use scaled steepest descent instead.
 Alpha Gap=     0.236 HL deriv= 1.55D-03
  Beta Gap=     0.147 HL deriv= 1.12D-03
     ILin= 1 X=0.000D+00 Y=-1.912845816542D+02 DE= 0.00D+00 F= -3.52D-01
     ILin= 2 X=3.000D-01 Y=-1.913567209464D+02 DE=-7.21D-02 F= -1.28D-01
     ILin= 3 X=5.000D-01 Y=-1.913674159474D+02 DE=-8.28D-02 F=  2.14D-02
     Accept linear search using points  2 and  3.
     An  expanding polynomial of degree  3 produced  0.3810
 Iteration   2 EE= -191.364662753334     Delta-E=       -0.080081099135 Grad=1.151D-01 Max rot=    1.0765 deg.
 Gradient too large for Newton-Raphson -- use scaled steepest descent instead.
 Alpha Gap=     0.246 HL deriv= 7.24D-04
  Beta Gap=     0.159 HL deriv= 2.21D-04
     ILin= 1 X=0.000D+00 Y=-1.913646627533D+02 DE= 0.00D+00 F= -2.11D-02
     ILin= 2 X=3.000D-01 Y=-1.913695179667D+02 DE=-4.86D-03 F= -1.13D-02
     ILin= 3 X=6.000D-01 Y=-1.913714427235D+02 DE=-6.78D-03 F= -1.52D-03
     ILin= 4 X=1.200D+00 Y=-1.913664606273D+02 DE=-1.80D-03 F=  1.81D-02
     An  expanding polynomial of degree  4 produced  0.6465
     Minimum is close to point  3 DX=  4.65D-02 DF= -3.54D-05 DXR=  7.20D-02 DFR=  5.22D-03 which will be used.
 Iteration   3 EE= -191.371442723480     Delta-E=       -0.006779970146 Grad=3.971D-02 Max rot=    0.4979 deg.
 Gradient too large for Newton-Raphson -- use scaled steepest descent instead.
 Alpha Gap=     0.245 HL deriv= 2.69D-04
  Beta Gap=     0.160 HL deriv= 1.79D-04
     ILin= 1 X=0.000D+00 Y=-1.913714427235D+02 DE= 0.00D+00 F= -1.82D-03
     ILin= 2 X=5.000D-01 Y=-1.913720918177D+02 DE=-6.49D-04 F= -7.73D-04
     ILin= 3 X=1.000D+00 Y=-1.913722161469D+02 DE=-7.73D-04 F=  2.76D-04
     Accept linear search using points  2 and  3.
     An  expanding polynomial of degree  3 produced  0.7825
 Iteration   4 EE= -191.372226567625     Delta-E=       -0.000783844145 Grad=1.143D-02 Max rot=    0.1429 deg.
 Gradient too large for Newton-Raphson -- use scaled steepest descent instead.
 Alpha Gap=     0.247 HL deriv= 1.42D-04
  Beta Gap=     0.162 HL deriv= 1.11D-04
     ILin= 1 X=0.000D+00 Y=-1.913722265676D+02 DE= 0.00D+00 F= -3.07D-04
     ILin= 2 X=7.000D-01 Y=-1.913723421230D+02 DE=-1.16D-04 F= -2.29D-05
     Reject lnstep minimum 1.326D+00 FVal=-1.913723559542D+02 Lims=  0.00D+00  7.00D-01
     ILin= 3 X=1.400D+00 Y=-1.913722586677D+02 DE=-3.21D-05 F=  2.61D-04
     An  expanding polynomial of degree  3 produced  0.7565
     Minimum is close to point  2 DX=  5.65D-02 DF= -6.47D-07 DXR=  7.46D-02 DFR=  5.60D-03 which will be used.
 Iteration   5 EE= -191.372342123011     Delta-E=       -0.000115555385 Grad=6.230D-03 Max rot=    0.1036 deg.
 QCNR:  CnvC1=3.07D-09 CnvC2=3.07D-08
 LinEq1:  Iter=  0 NonCon=     1 RMS=3.33D-04 Max=6.49D-03 NDo=     1
 AX will form     1 AO Fock derivatives at one time.
 LinEq1:  Iter=  1 NonCon=     1 RMS=3.45D-04 Max=7.27D-03 NDo=     1
 LinEq1:  Iter=  2 NonCon=     1 RMS=1.94D-04 Max=3.24D-03 NDo=     1
 LinEq1:  Iter=  3 NonCon=     1 RMS=1.21D-04 Max=1.66D-03 NDo=     1
 LinEq1:  Iter=  4 NonCon=     1 RMS=5.91D-05 Max=4.83D-04 NDo=     1
 LinEq1:  Iter=  5 NonCon=     1 RMS=2.01D-05 Max=1.46D-04 NDo=     1
 LinEq1:  Iter=  6 NonCon=     1 RMS=1.12D-05 Max=8.76D-05 NDo=     1
 LinEq1:  Iter=  7 NonCon=     1 RMS=3.22D-06 Max=2.39D-05 NDo=     1
 LinEq1:  Iter=  8 NonCon=     1 RMS=5.07D-07 Max=3.97D-06 NDo=     1
 LinEq1:  Iter=  9 NonCon=     1 RMS=1.09D-07 Max=9.58D-07 NDo=     1
 LinEq1:  Iter= 10 NonCon=     1 RMS=2.48D-08 Max=1.74D-07 NDo=     1
 LinEq1:  Iter= 11 NonCon=     1 RMS=5.14D-09 Max=5.29D-08 NDo=     1
 LinEq1:  Iter= 12 NonCon=     0 RMS=1.17D-09 Max=2.05D-08 NDo=     1
 Linear equations converged to 3.074D-09 3.074D-08 after    12 iterations.
 Angle between quadratic step and gradient=  56.27 degrees.
     ILin= 1 X=0.000D+00 Y=-1.913723421230D+02 DE= 0.00D+00 F= -1.47D-04
     ILin= 2 X=1.000D+00 Y=-1.913724153557D+02 DE=-7.32D-05 F=  4.22D-07
     Accept linear search using points  1 and  2.
     An  expanding polynomial of degree  2 produced  0.9971
     Minimum is close to point  2 DX= -2.86D-03 DF= -6.02D-10 DXR=  2.87D-03 DFR=  8.23D-06 which will be used.
 Iteration   6 EE= -191.372415355732     Delta-E=       -0.000073232721 Grad=3.123D-05 Max rot=    0.0005 deg.
 QCNR:  CnvC1=3.12D-10 CnvC2=3.12D-09
 LinEq1:  Iter=  0 NonCon=     1 RMS=1.71D-06 Max=2.55D-05 NDo=     1
 LinEq1:  Iter=  1 NonCon=     1 RMS=1.42D-06 Max=3.09D-05 NDo=     1
 LinEq1:  Iter=  2 NonCon=     1 RMS=8.89D-07 Max=1.95D-05 NDo=     1
 LinEq1:  Iter=  3 NonCon=     1 RMS=6.69D-07 Max=8.97D-06 NDo=     1
 LinEq1:  Iter=  4 NonCon=     1 RMS=2.65D-07 Max=2.63D-06 NDo=     1
 LinEq1:  Iter=  5 NonCon=     1 RMS=1.47D-07 Max=1.45D-06 NDo=     1
 LinEq1:  Iter=  6 NonCon=     1 RMS=5.47D-08 Max=4.03D-07 NDo=     1
 LinEq1:  Iter=  7 NonCon=     1 RMS=1.28D-08 Max=1.06D-07 NDo=     1
 LinEq1:  Iter=  8 NonCon=     1 RMS=4.50D-09 Max=3.85D-08 NDo=     1
 LinEq1:  Iter=  9 NonCon=     1 RMS=2.02D-09 Max=2.31D-08 NDo=     1
 LinEq1:  Iter= 10 NonCon=     1 RMS=5.99D-10 Max=8.79D-09 NDo=     1
 LinEq1:  Iter= 11 NonCon=     0 RMS=1.66D-10 Max=2.59D-09 NDo=     1
 Linear equations converged to 3.123D-10 3.123D-09 after    11 iterations.
 Angle between quadratic step and gradient=  53.08 degrees.
     ILin= 1 X=0.000D+00 Y=-1.913724153557D+02 DE= 0.00D+00 F= -3.33D-09
     ILin= 2 X=1.000D+00 Y=-1.913724153574D+02 DE=-1.67D-09
 Iteration   7 EE= -191.372415357398     Delta-E=       -0.000000001666 Grad=2.081D-09 Max rot=    0.0000 deg.
 Rotation gradient small -- convergence achieved.
 SCF Done:  E(UB3LYP) =  -191.372415357     a.u. after    7 cycles
            Convg  =    0.2081D-08                    37 Fock formations.
              S**2 =  0.7592                  -V/T =  2.0082
 <Sx>= 0.0000 <Sy>= 0.0000 <Sz>= 0.5000 <S**2>= 0.7592 S= 0.5046
 <L.S>= 0.000000000000E+00
 Annihilation of the first spin contaminant:
 S**2 before annihilation     0.7592,   after     0.7501
 Leave Link  508 at Wed Jan  6 11:30:35 2021, MaxMem=    33554432 cpu:        24.7
 (Enter /apps/applications/gaussian/G09.D01/2/default/g09/l801.exe)
 DoSCS=F DFT=T ScalE2(SS,OS)=  1.000000  1.000000
 Range of M.O.s used for correlation:     1    46
 NBasis=    46 NAE=    16 NBE=    15 NFC=     0 NFV=     0
 NROrb=     46 NOA=    16 NOB=    15 NVA=    30 NVB=    31
 Leave Link  801 at Wed Jan  6 11:30:35 2021, MaxMem=    33554432 cpu:         0.0
 (Enter /apps/applications/gaussian/G09.D01/2/default/g09/l1101.exe)
 Using compressed storage, NAtomX=     9.
 Will process     10 centers per pass.
 Leave Link 1101 at Wed Jan  6 11:30:36 2021, MaxMem=    33554432 cpu:         0.1
 (Enter /apps/applications/gaussian/G09.D01/2/default/g09/l1102.exe)
 Symmetrizing basis deriv contribution to polar:
 IMax=3 JMax=2 DiffMx= 0.00D+00
 Leave Link 1102 at Wed Jan  6 11:30:36 2021, MaxMem=    33554432 cpu:         0.1
 (Enter /apps/applications/gaussian/G09.D01/2/default/g09/l1110.exe)
 Forming Gx(P) for the SCF density, NAtomX=     9.
 Integral derivatives from FoFJK, PRISM(SPDF).
 Do as many integral derivatives as possible in FoFJK.
 G2DrvN: MDV=      33554256.
 G2DrvN: will do    10 centers at a time, making    1 passes.
 Calling FoFCou, ICntrl=  3107 FMM=F I1Cent=   0 AccDes= 0.00D+00.
 FoFJK:  IHMeth= 1 ICntrl=    3107 DoSepK=F KAlg= 0 I1Cent=   0 FoldK=F
 IRaf=         0 NMat=   1 IRICut=       1 DoRegI=T DoRafI=F ISym2E= 0.
 FoFCou: FMM=F IPFlag=           0 FMFlag=      100000 FMFlg1=           0
         NFxFlg=           0 DoJE=F BraDBF=F KetDBF=F FulRan=T
         wScrn=  0.000000 ICntrl=    3107 IOpCl=  1 I1Cent=           0 NGrid=           0
         NMat0=    1 NMatS0=      1 NMatT0=    0 NMatD0=    1 NMtDS0=    0 NMtDT0=    0
 Symmetry not used in FoFCou.
 End of G2Drv F.D. properties file   721 does not exist.
 End of G2Drv F.D. properties file   722 does not exist.
 End of G2Drv F.D. properties file   788 does not exist.
 Leave Link 1110 at Wed Jan  6 11:30:46 2021, MaxMem=    33554432 cpu:         9.8
 (Enter /apps/applications/gaussian/G09.D01/2/default/g09/l1002.exe)
 Minotr:  UHF open shell wavefunction.
          IDoAtm=111111111
          Direct CPHF calculation.
          Differentiating once with respect to electric field.
                with respect to dipole field.
          Differentiating once with respect to nuclear coordinates.
          Requested convergence is 1.0D-08 RMS, and 1.0D-07 maximum.
          Secondary convergence is 1.0D-12 RMS, and 1.0D-12 maximum.
          NewPWx=T KeepS1=F KeepF1=F KeepIn=T MapXYZ=F SortEE=F KeepMc=T.
          MDV=      33554246 using IRadAn=       2.
 Generate precomputed XC quadrature information.
 Keep R1 and R2 ints in memory in canonical form, NReq=2035813.
 FoFCou: FMM=F IPFlag=           0 FMFlag=           0 FMFlg1=           0
         NFxFlg=           0 DoJE=F BraDBF=F KetDBF=F FulRan=T
         wScrn=  0.000000 ICntrl=     600 IOpCl=  0 I1Cent=           0 NGrid=           0
         NMat0=    1 NMatS0=   1081 NMatT0=    0 NMatD0=    1 NMtDS0=    0 NMtDT0=    0
 Symmetry not used in FoFCou.
          Solving linear equations simultaneously, MaxMat=       0.
          There are    30 degrees of freedom in the 1st order CPHF.  IDoFFX=6 NUNeed=     3.
     27 vectors produced by pass  0 Test12= 3.15D-15 3.33D-09 XBig12= 1.17D+02 6.16D+00.
 AX will form    27 AO Fock derivatives at one time.
     27 vectors produced by pass  1 Test12= 3.15D-15 3.33D-09 XBig12= 2.48D+01 1.08D+00.
     27 vectors produced by pass  2 Test12= 3.15D-15 3.33D-09 XBig12= 2.48D-01 7.87D-02.
     27 vectors produced by pass  3 Test12= 3.15D-15 3.33D-09 XBig12= 7.36D-04 4.77D-03.
     27 vectors produced by pass  4 Test12= 3.15D-15 3.33D-09 XBig12= 2.18D-06 2.47D-04.
     26 vectors produced by pass  5 Test12= 3.15D-15 3.33D-09 XBig12= 4.25D-09 9.13D-06.
      7 vectors produced by pass  6 Test12= 3.15D-15 3.33D-09 XBig12= 9.78D-12 5.17D-07.
      1 vectors produced by pass  7 Test12= 3.15D-15 3.33D-09 XBig12= 1.87D-14 1.79D-08.
 InvSVY:  IOpt=1 It=  1 EMax= 5.33D-15
 Solved reduced A of dimension   169 with    30 vectors.
 FullF1:  Do perturbations    1 to     3.
 Isotropic polarizability for W=    0.000000       32.45 Bohr**3.
 End of Minotr F.D. properties file   721 does not exist.
 End of Minotr F.D. properties file   722 does not exist.
 End of Minotr F.D. properties file   788 does not exist.
 Leave Link 1002 at Wed Jan  6 11:30:55 2021, MaxMem=    33554432 cpu:         9.0
 (Enter /apps/applications/gaussian/G09.D01/2/default/g09/l601.exe)
 Copying SCF densities to generalized density rwf, IOpCl= 1 IROHF=0.

 **********************************************************************

            Population analysis using the SCF density.

 **********************************************************************

 Orbital symmetries:
 Alpha Orbitals:
       Occupied  (A) (A) (A) (A) (A) (A) (A) (A) (A) (A) (A) (A)
                 (A) (A) (A) (A)
       Virtual   (A) (A) (A) (A) (A) (A) (A) (A) (A) (A) (A) (A)
                 (A) (A) (A) (A) (A) (A) (A) (A) (A) (A) (A) (A)
                 (A) (A) (A) (A) (A) (A)
 Beta  Orbitals:
       Occupied  (A) (A) (A) (A) (A) (A) (A) (A) (A) (A) (A) (A)
                 (A) (A) (A)
       Virtual   (A) (A) (A) (A) (A) (A) (A) (A) (A) (A) (A) (A)
                 (A) (A) (A) (A) (A) (A) (A) (A) (A) (A) (A) (A)
                 (A) (A) (A) (A) (A) (A) (A)
 The electronic state is 2-A.
 Alpha  occ. eigenvalues --  -19.04443 -10.17421 -10.14085 -10.12079  -1.03587
 Alpha  occ. eigenvalues --   -0.78626  -0.70525  -0.58306  -0.47733  -0.46551
 Alpha  occ. eigenvalues --   -0.43274  -0.42435  -0.35773  -0.34348  -0.21416
 Alpha  occ. eigenvalues --   -0.18839
 Alpha virt. eigenvalues --    0.05408   0.10596   0.13344   0.16800   0.19029
 Alpha virt. eigenvalues --    0.19939   0.25507   0.31947   0.45639   0.66352
 Alpha virt. eigenvalues --    0.71436   0.71932   0.78092   0.79915   0.86280
 Alpha virt. eigenvalues --    0.90209   0.95864   0.98137   0.99331   1.00408
 Alpha virt. eigenvalues --    1.03026   1.09145   1.22554   1.34937   1.48972
 Alpha virt. eigenvalues --    1.59766   1.69096   1.97841   2.03440   3.01261
  Beta  occ. eigenvalues --  -19.04225 -10.17654 -10.14201 -10.10757  -1.03005
  Beta  occ. eigenvalues --   -0.76749  -0.69946  -0.57260  -0.46611  -0.45054
  Beta  occ. eigenvalues --   -0.42874  -0.41409  -0.35870  -0.33487  -0.20443
  Beta virt. eigenvalues --   -0.05191   0.06013   0.11170   0.13746   0.17434
  Beta virt. eigenvalues --    0.19853   0.20252   0.27273   0.33157   0.46252
  Beta virt. eigenvalues --    0.66754   0.71988   0.75924   0.77976   0.81278
  Beta virt. eigenvalues --    0.87157   0.90913   0.97045   0.98974   1.00240
  Beta virt. eigenvalues --    1.00943   1.03518   1.10722   1.23524   1.36340
  Beta virt. eigenvalues --    1.48991   1.60544   1.70024   1.98219   2.03742
  Beta virt. eigenvalues --    3.01730
          Condensed to atoms (all electrons):
               1          2          3          4          5          6
     1  C    5.345290   0.298080   0.363301   0.369271   0.359511  -0.056439
     2  C    0.298080   5.565053  -0.060107  -0.055430  -0.060781   0.411266
     3  H    0.363301  -0.060107   0.540201  -0.028295  -0.032675   0.000772
     4  H    0.369271  -0.055430  -0.028295   0.523679  -0.028365  -0.001330
     5  H    0.359511  -0.060781  -0.032675  -0.028365   0.542408  -0.001894
     6  C   -0.056439   0.411266   0.000772  -0.001330  -0.001894   5.063174
     7  H    0.000444  -0.081019  -0.000095  -0.000044   0.000257   0.388097
     8  O   -0.000022  -0.080707   0.000102   0.000015  -0.000025   0.287671
     9  H   -0.000071  -0.000046  -0.000168  -0.000013   0.000018  -0.038265
               7          8          9
     1  C    0.000444  -0.000022  -0.000071
     2  C   -0.081019  -0.080707  -0.000046
     3  H   -0.000095   0.000102  -0.000168
     4  H   -0.000044   0.000015  -0.000013
     5  H    0.000257  -0.000025   0.000018
     6  C    0.388097   0.287671  -0.038265
     7  H    0.527395  -0.048666   0.006533
     8  O   -0.048666   8.145702   0.239938
     9  H    0.006533   0.239938   0.445461
          Atomic-Atomic Spin Densities.
               1          2          3          4          5          6
     1  C   -0.112826  -0.028721   0.011154   0.004689   0.012179   0.000829
     2  C   -0.028721   1.124518  -0.023854  -0.004013  -0.031141   0.013160
     3  H    0.011154  -0.023854   0.086026  -0.000154  -0.020016   0.001408
     4  H    0.004689  -0.004013  -0.000154   0.009760  -0.003156   0.000281
     5  H    0.012179  -0.031141  -0.020016  -0.003156   0.115197  -0.002096
     6  C    0.000829   0.013160   0.001408   0.000281  -0.002096  -0.177510
     7  H    0.000173  -0.014095  -0.000106  -0.000014   0.000375   0.001617
     8  O    0.000065  -0.039857   0.000113   0.000004  -0.000031  -0.004127
     9  H   -0.000044   0.013857  -0.000224  -0.000008   0.000029   0.001892
               7          8          9
     1  C    0.000173   0.000065  -0.000044
     2  C   -0.014095  -0.039857   0.013857
     3  H   -0.000106   0.000113  -0.000224
     4  H   -0.000014   0.000004  -0.000008
     5  H    0.000375  -0.000031   0.000029
     6  C    0.001617  -0.004127   0.001892
     7  H    0.081258  -0.012299   0.001262
     8  O   -0.012299   0.134150  -0.012105
     9  H    0.001262  -0.012105   0.005376
 Mulliken charges and spin densities:
               1          2
     1  C   -0.679364  -0.112502
     2  C    0.063691   1.009854
     3  H    0.216965   0.054346
     4  H    0.220512   0.007389
     5  H    0.221545   0.071340
     6  C   -0.053053  -0.164547
     7  H    0.207098   0.058171
     8  O   -0.544007   0.065914
     9  H    0.346613   0.010036
 Sum of Mulliken charges =   0.00000   1.00000
 Mulliken charges and spin densities with hydrogens summed into heavy atoms:
               1          2
     1  C   -0.020342   0.020573
     2  C    0.063691   1.009854
     6  C    0.154045  -0.106376
     8  O   -0.197394   0.075949
 APT charges:
               1
     1  C    0.158233
     2  C   -0.317856
     3  H   -0.010806
     4  H   -0.018687
     5  H   -0.008344
     6  C    0.537192
     7  H    0.027347
     8  O   -0.606419
     9  H    0.239341
 Sum of APT charges =   0.00000
 APT charges with hydrogens summed into heavy atoms:
               1
     1  C    0.120395
     2  C   -0.317856
     6  C    0.564539
     8  O   -0.367078
 Electronic spatial extent (au):  <R**2>=            346.7193
 Charge=              0.0000 electrons
 Dipole moment (field-independent basis, Debye):
    X=              1.6868    Y=             -0.9671    Z=              0.0792  Tot=              1.9460
 Quadrupole moment (field-independent basis, Debye-Ang):
   XX=            -25.4703   YY=            -20.5828   ZZ=            -25.6028
   XY=              0.5059   XZ=             -0.1671   YZ=             -0.1037
 Traceless Quadrupole moment (field-independent basis, Debye-Ang):
   XX=             -1.5850   YY=              3.3025   ZZ=             -1.7175
   XY=              0.5059   XZ=             -0.1671   YZ=             -0.1037
 Octapole moment (field-independent basis, Debye-Ang**2):
  XXX=              6.4092  YYY=             -4.9660  ZZZ=              0.6313  XYY=             -8.0927
  XXY=             -1.7559  XXZ=              0.2512  XZZ=             -1.5809  YZZ=             -1.7692
  YYZ=             -0.4671  XYZ=              0.0306
 Hexadecapole moment (field-independent basis, Debye-Ang**3):
 XXXX=           -357.3963 YYYY=            -49.5212 ZZZZ=            -30.3238 XXXY=              5.2511
 XXXZ=             -0.4047 YYYX=              6.5975 YYYZ=              0.3041 ZZZX=              1.5198
 ZZZY=             -0.2200 XXYY=            -56.7171 XXZZ=            -60.9932 YYZZ=            -14.9834
 XXYZ=             -1.0113 YYXZ=             -1.5519 ZZXY=              0.6436
 N-N= 1.073421375089D+02 E-N=-6.610806978370D+02  KE= 1.898151390652D+02
  Exact polarizability:  51.070  -2.463  29.528   0.044  -0.133  16.754
 Approx polarizability:  78.977  -4.532  38.182   0.637  -0.235  20.473
                          Isotropic Fermi Contact Couplings
        Atom                 a.u.       MegaHertz       Gauss      10(-4) cm-1
     1  C(13)             -0.03427     -38.53142     -13.74897     -12.85270
     2  C(13)              0.10777     121.15968      43.23279      40.41452
     3  H(1)               0.02277     101.79702      36.32371      33.95583
     4  H(1)               0.00288      12.86260       4.58970       4.29050
     5  H(1)               0.02858     127.76215      45.58871      42.61687
     6  C(13)             -0.05179     -58.22406     -20.77579     -19.42146
     7  H(1)               0.02103      94.00644      33.54384      31.35717
     8  O(17)              0.05321     -32.25364     -11.50890     -10.75866
     9  H(1)              -0.00144      -6.44044      -2.29811      -2.14830
 --------------------------------------------------------
       Center         ----  Spin Dipole Couplings  ----
                      3XX-RR        3YY-RR        3ZZ-RR
 --------------------------------------------------------
     1   Atom        0.019359     -0.002523     -0.016836
     2   Atom       -0.421518      0.801260     -0.379742
     3   Atom        0.010294     -0.002533     -0.007761
     4   Atom        0.011319     -0.005585     -0.005734
     5   Atom        0.017324     -0.009542     -0.007781
     6   Atom        0.084592      0.018613     -0.103205
     7   Atom        0.014146     -0.006517     -0.007629
     8   Atom        0.358160     -0.124550     -0.233610
     9   Atom        0.007486      0.011982     -0.019468
 --------------------------------------------------------
                        XY            XZ            YZ
 --------------------------------------------------------
     1   Atom       -0.002957      0.001503      0.000328
     2   Atom        0.351487      0.001220      0.006922
     3   Atom       -0.011880     -0.006792      0.002260
     4   Atom       -0.004868      0.009792     -0.002595
     5   Atom        0.002542     -0.004808      0.000572
     6   Atom       -0.011423     -0.000148      0.000621
     7   Atom       -0.003239      0.000002      0.000063
     8   Atom        0.063450      0.007958     -0.002056
     9   Atom        0.008217     -0.000156     -0.001464
 --------------------------------------------------------


 ---------------------------------------------------------------------------------
              Anisotropic Spin Dipole Couplings in Principal Axis System
 ---------------------------------------------------------------------------------

       Atom             a.u.   MegaHertz   Gauss  10(-4) cm-1        Axes

              Baa    -0.0169    -2.270    -0.810    -0.757 -0.0440 -0.0318  0.9985
     1 C(13)  Bbb    -0.0029    -0.389    -0.139    -0.130  0.1291  0.9909  0.0372
              Bcc     0.0198     2.658     0.948     0.887  0.9907 -0.1306  0.0395
 
              Baa    -0.5154   -69.156   -24.676   -23.068  0.9661 -0.2579  0.0045
     2 C(13)  Bbb    -0.3798   -50.963   -18.185   -16.999 -0.0057 -0.0042  1.0000
              Bcc     0.8951   120.118    42.861    40.067  0.2579  0.9661  0.0055
 
              Baa    -0.0111    -5.917    -2.111    -1.974  0.5089  0.5269  0.6807
     3 H(1)   Bbb    -0.0081    -4.327    -1.544    -1.443  0.1970  0.6985 -0.6879
              Bcc     0.0192    10.244     3.655     3.417  0.8379 -0.4842 -0.2517
 
              Baa    -0.0102    -5.456    -1.947    -1.820 -0.3932  0.0986  0.9141
     4 H(1)   Bbb    -0.0069    -3.674    -1.311    -1.226  0.2555  0.9668  0.0056
              Bcc     0.0171     9.130     3.258     3.046  0.8832 -0.2358  0.4053
 
              Baa    -0.0104    -5.530    -1.973    -1.844 -0.1643  0.8533 -0.4949
     5 H(1)   Bbb    -0.0081    -4.298    -1.534    -1.434  0.1096  0.5144  0.8505
              Bcc     0.0184     9.827     3.507     3.278  0.9803  0.0855 -0.1780
 
              Baa    -0.1032   -13.850    -4.942    -4.620  0.0005 -0.0051  1.0000
     6 C(13)  Bbb     0.0167     2.240     0.799     0.747  0.1659  0.9861  0.0049
              Bcc     0.0865    11.609     4.143     3.872  0.9861 -0.1659 -0.0013
 
              Baa    -0.0076    -4.074    -1.454    -1.359 -0.0148 -0.0988  0.9950
     7 H(1)   Bbb    -0.0070    -3.739    -1.334    -1.247  0.1506  0.9835  0.0999
              Bcc     0.0146     7.812     2.788     2.606  0.9885 -0.1513 -0.0003
 
              Baa    -0.2338    16.918     6.037     5.643 -0.0165  0.0284  0.9995
     8 O(17)  Bbb    -0.1327     9.599     3.425     3.202 -0.1277  0.9914 -0.0303
              Bcc     0.3665   -26.517    -9.462    -8.845  0.9917  0.1281  0.0127
 
              Baa    -0.0195   -10.425    -3.720    -3.477 -0.0091  0.0488  0.9988
     9 H(1)   Bbb     0.0012     0.663     0.237     0.221  0.7960 -0.6041  0.0367
              Bcc     0.0183     9.761     3.483     3.256  0.6052  0.7954 -0.0333
 

 ---------------------------------------------------------------------------------

 No NMR shielding tensors so no spin-rotation constants.
 Leave Link  601 at Wed Jan  6 11:30:55 2021, MaxMem=    33554432 cpu:         0.1
 (Enter /apps/applications/gaussian/G09.D01/2/default/g09/l701.exe)
 Compute integral second derivatives.
 ... and contract with generalized density number  0.
 Leave Link  701 at Wed Jan  6 11:30:55 2021, MaxMem=    33554432 cpu:         0.1
 (Enter /apps/applications/gaussian/G09.D01/2/default/g09/l702.exe)
 L702 exits ... SP integral derivatives will be done elsewhere.
 Leave Link  702 at Wed Jan  6 11:30:55 2021, MaxMem=    33554432 cpu:         0.0
 (Enter /apps/applications/gaussian/G09.D01/2/default/g09/l703.exe)
 Compute integral second derivatives, UseDBF=F ICtDFT=           0.
 Integral derivatives from FoFJK, PRISM(SPDF).
 Calling FoFJK, ICntrl=    100127 FMM=F ISym2X=0 I1Cent= 0 IOpClX= 1 NMat=1 NMatS=1 NMatT=0.
 FoFJK:  IHMeth= 1 ICntrl=  100127 DoSepK=F KAlg= 0 I1Cent=   0 FoldK=F
 IRaf=         0 NMat=   1 IRICut=       1 DoRegI=T DoRafI=F ISym2E= 0.
 FoFCou: FMM=F IPFlag=           0 FMFlag=      100000 FMFlg1=         800
         NFxFlg=           0 DoJE=F BraDBF=F KetDBF=F FulRan=T
         wScrn=  0.000000 ICntrl=  100127 IOpCl=  1 I1Cent=           0 NGrid=           0
         NMat0=    1 NMatS0=      1 NMatT0=    0 NMatD0=    1 NMtDS0=    0 NMtDT0=    0
 Symmetry not used in FoFCou.
 Leave Link  703 at Wed Jan  6 11:31:04 2021, MaxMem=    33554432 cpu:         8.5
 (Enter /apps/applications/gaussian/G09.D01/2/default/g09/l716.exe)
 Dipole        = 6.63623263D-01-3.80505447D-01 3.11666968D-02
 Polarizability= 5.10695294D+01-2.46257810D+00 2.95277146D+01
                 4.38466276D-02-1.32508298D-01 1.67541892D+01
 ***** Axes restored to original set *****
 -------------------------------------------------------------------
 Center     Atomic                   Forces (Hartrees/Bohr)
 Number     Number              X              Y              Z
 -------------------------------------------------------------------
      1        6           0.013683932    0.016694531   -0.013447067
      2        6          -0.010621441   -0.016356367    0.022398945
      3        1           0.003089300    0.001290419    0.000460300
      4        1          -0.002551427    0.001744665    0.000004531
      5        1           0.000607082    0.000148782   -0.002897268
      6        6           0.011236583    0.013495028   -0.007997086
      7        1           0.002415996    0.003390626   -0.001118268
      8        8          -0.020425862   -0.024069953    0.008184894
      9        1           0.002565837    0.003662269   -0.005588981
 -------------------------------------------------------------------
 Cartesian Forces:  Max     0.024069953 RMS     0.010653318
 Force constants in Cartesian coordinates: 
                1             2             3             4             5 
      1  0.510192D+00
      2  0.367906D-02  0.491718D+00
      3 -0.296213D-01 -0.247560D-01  0.491572D+00
      4 -0.118686D+00 -0.777023D-01  0.981412D-01  0.329434D+00
      5 -0.820971D-01 -0.144883D+00  0.116038D+00  0.315484D+00  0.439450D+00
      6  0.100380D+00  0.113052D+00 -0.127718D+00 -0.334202D+00 -0.394013D+00
      7 -0.118567D+00  0.311735D-01 -0.975361D-01  0.116448D-01 -0.782483D-02
      8  0.357315D-01 -0.546593D-01  0.449984D-01  0.392397D-02 -0.160417D-01
      9 -0.104896D+00  0.419661D-01 -0.189826D+00  0.196966D-02  0.168148D-01
     10 -0.216279D+00  0.891827D-01  0.600468D-01 -0.188756D-01 -0.384932D-02
     11  0.867914D-01 -0.924229D-01 -0.306621D-01 -0.252877D-01  0.888000D-02
     12  0.612820D-01 -0.319123D-01 -0.698915D-01  0.226866D-01 -0.238034D-02
     13 -0.573403D-01 -0.438609D-01 -0.268628D-01 -0.767649D-02 -0.192658D-01
     14 -0.405227D-01 -0.201742D+00 -0.100770D+00 -0.131910D-01 -0.261220D-01
     15 -0.223713D-01 -0.915375D-01 -0.983324D-01  0.591540D-02  0.229408D-01
     16 -0.283492D-02  0.109532D-02 -0.100615D-04 -0.175763D+00 -0.160016D+00
     17  0.152865D-02 -0.191549D-02 -0.489836D-03 -0.160924D+00 -0.229712D+00
     18 -0.240180D-02 -0.759390D-02 -0.600748D-02  0.183671D+00  0.217308D+00
     19  0.185588D-02 -0.199635D-02 -0.733691D-03  0.236057D-02 -0.607051D-02
     20 -0.184960D-03  0.207644D-02  0.113846D-02 -0.609194D-02  0.843943D-03
     21 -0.133992D-02 -0.755644D-03 -0.787506D-03  0.502002D-02  0.607529D-02
     22  0.297782D-02 -0.182696D-02 -0.347994D-02 -0.244840D-01 -0.390436D-01
     23 -0.479129D-02  0.281625D-02 -0.541882D-02 -0.389640D-01 -0.348254D-01
     24 -0.147167D-02  0.151355D-02  0.580415D-03  0.174150D-01  0.175430D-01
     25 -0.131903D-02  0.255941D-03  0.558717D-04  0.204564D-02  0.268303D-02
     26 -0.134651D-03 -0.988299D-03 -0.781911D-04  0.275296D-02  0.240974D-02
     27  0.440576D-03  0.234111D-04  0.410634D-03 -0.616932D-03 -0.327043D-03
                6             7             8             9            10 
      6  0.422856D+00
      7  0.165497D-01  0.129710D+00
      8  0.226997D-01 -0.320519D-01  0.686279D-01
      9 -0.205408D-01  0.111392D+00 -0.568485D-01  0.217767D+00
     10  0.132370D-01 -0.165902D-01  0.882499D-02  0.519262D-02  0.243986D+00
     11  0.107400D-01  0.625761D-02 -0.491582D-02 -0.316969D-02 -0.934569D-01
     12 -0.132049D-01 -0.236661D-01  0.118414D-01  0.911501D-02 -0.742460D-01
     13  0.212569D-03 -0.567978D-02 -0.162457D-01 -0.117424D-01  0.673939D-02
     14  0.674239D-02  0.258319D-02  0.620391D-02  0.254033D-02 -0.251348D-02
     15  0.854307D-02 -0.720103D-02 -0.245615D-01 -0.155225D-01 -0.289342D-02
     16  0.176049D+00  0.234967D-03  0.174989D-02 -0.338904D-02  0.194976D-02
     17  0.208877D+00 -0.318533D-05  0.192313D-02 -0.225835D-02  0.407889D-02
     18 -0.267077D+00 -0.567502D-04  0.172265D-02 -0.978851D-04 -0.972884D-03
     19  0.162816D-01 -0.284338D-03 -0.690917D-03  0.121102D-02  0.587634D-03
     20  0.202071D-01 -0.761550D-04 -0.193110D-04 -0.113734D-03 -0.498587D-03
     21 -0.157944D-01  0.289282D-03  0.451829D-03 -0.704567D-03  0.459983D-04
     22  0.101632D-01 -0.657921D-03 -0.140457D-02  0.735024D-03 -0.131910D-02
     23  0.100861D-01  0.138626D-03 -0.872620D-03  0.107691D-02 -0.208929D-02
     24  0.100755D-01  0.200615D-03 -0.419847D-03 -0.370519D-03 -0.671563D-03
     25  0.132923D-02  0.188909D-03  0.162770D-03 -0.472122D-03 -0.199270D-03
     26  0.160827D-02 -0.196839D-03 -0.246165D-03 -0.793579D-05  0.321056D-03
     27  0.285962D-02  0.287218D-04  0.115823D-03  0.179886D-03  0.261394D-03
               11            12            13            14            15 
     11  0.102623D+00
     12  0.312432D-01  0.788859D-01
     13  0.253584D-01  0.142227D-01  0.638087D-01
     14 -0.135431D-01 -0.836158D-02  0.546220D-01  0.236189D+00
     15 -0.857112D-02 -0.634129D-02  0.256221D-01  0.101587D+00  0.111850D+00
     16  0.574572D-03 -0.767090D-03  0.172129D-02  0.159451D-02 -0.509155D-03
     17  0.131114D-02 -0.273444D-02  0.461274D-03  0.102412D-02 -0.669527D-03
     18  0.983197D-03  0.121801D-02 -0.239649D-02 -0.263963D-02  0.113260D-03
     19  0.640584D-03 -0.419755D-04  0.414145D-04 -0.988601D-04  0.543332D-03
     20 -0.445087D-03 -0.231831D-04 -0.643268D-03 -0.581164D-03 -0.170332D-03
     21 -0.299830D-04 -0.932162D-04  0.252829D-03  0.344580D-03 -0.107310D-03
     22 -0.660444D-03  0.420787D-03 -0.183743D-02 -0.273515D-02  0.103397D-02
     23 -0.165995D-02  0.255919D-02 -0.563147D-03 -0.154016D-02  0.100513D-02
     24 -0.687666D-03  0.509454D-03  0.644967D-03  0.394472D-03 -0.124306D-03
     25 -0.217601D-03  0.108964D-03  0.223221D-03  0.261517D-03 -0.139943D-03
     26  0.172262D-03 -0.231991D-03  0.137172D-03  0.110764D-03 -0.230284D-04
     27  0.154077D-03 -0.197480D-03  0.465132D-04  0.162431D-03 -0.789797D-04
               16            17            18            19            20 
     16  0.353653D+00
     17  0.271780D+00  0.428042D+00
     18 -0.108536D+00 -0.146485D+00  0.703512D+00
     19 -0.416155D-01  0.168539D-02 -0.162737D-02  0.399902D-01
     20  0.212712D-02 -0.411684D-01  0.109117D-01  0.226666D-01  0.450390D-01
     21 -0.121699D-01 -0.868014D-03 -0.314142D+00  0.140644D-01  0.576083D-03
     22 -0.129127D+00 -0.111189D+00 -0.318229D-01 -0.261987D-02 -0.120768D-01
     23 -0.113076D+00 -0.150541D+00 -0.357710D-01 -0.115175D-01 -0.488431D-02
     24 -0.588417D-01 -0.645263D-01 -0.102169D+00 -0.273375D-01 -0.299287D-01
     25 -0.821931D-02 -0.741819D-02 -0.358562D-01 -0.316012D-03 -0.522204D-02
     26 -0.582987D-02 -0.896312D-02 -0.384367D-01 -0.461849D-02 -0.861106D-03
     27  0.817460D-02  0.915398D-02 -0.153504D-01 -0.235979D-02 -0.259738D-02
               21            22            23            24            25 
     21  0.345082D+00
     22 -0.484469D-02  0.177109D+00
     23 -0.495544D-02  0.187383D+00  0.216414D+00
     24 -0.150635D-01  0.611815D-01  0.819685D-01  0.547387D+00
     25 -0.131797D-02 -0.200415D-01 -0.165208D-01  0.888030D-02  0.276374D-01
     26 -0.838697D-03 -0.184467D-01 -0.249074D-01 -0.585698D-02  0.260154D-01
     27  0.160986D-02 -0.333870D-01 -0.505506D-01 -0.440825D+00  0.274119D-01
               26            27 
     26  0.332734D-01
     27  0.438653D-01  0.451392D+00
 Leave Link  716 at Wed Jan  6 11:31:48 2021, MaxMem=    33554432 cpu:         0.1
 (Enter /apps/applications/gaussian/G09.D01/2/default/g09/l103.exe)

 GradGradGradGradGradGradGradGradGradGradGradGradGradGradGradGradGradGrad
 Berny optimization.
 Search for a saddle point.
 Step number   1 out of a maximum of  100
 All quantities printed in internal units (Hartrees-Bohrs-Radians)
 Swapping is turned off.
 Second derivative matrix not updated -- analytic derivatives used.
 ITU=  0
     Eigenvalues ---   -0.01533   0.00020   0.00408   0.01192   0.02609
     Eigenvalues ---    0.06802   0.08326   0.09511   0.11116   0.11773
     Eigenvalues ---    0.11918   0.15649   0.17511   0.24915   0.46755
     Eigenvalues ---    0.62485   0.64246   0.66904   0.75350   0.95012
     Eigenvalues ---    1.66192
 Eigenvectors required to have negative eigenvalues:
                          Z2        Z5        Y3        X3        X2
   1                    0.53395  -0.37586  -0.30165  -0.26922   0.24436
                          Y2        Y7        Z9        Z8        X7
   1                    0.23735  -0.23164  -0.21939  -0.21840  -0.16224
 RFO step:  Lambda0=1.391230541D-09 Lambda=-5.88573114D-03.
 Linear search not attempted -- option 19 set.
 TrRot=  0.000000  0.000000  0.000000  0.000000  0.000000  0.000000
 MatCor failed.
 Variable       Old X    -DE/DX   Delta X   Delta X   Delta X     New X
                                 (Linear)    (Quad)   (Total)
    X1       -2.14752   0.01368   0.00000   0.03374   0.03374  -2.11378
    Y1        9.16771   0.01669   0.00000   0.04496   0.04496   9.21267
    Z1        7.66406  -0.01345   0.00000  -0.02201  -0.02201   7.64205
    X2       -3.52754  -0.01062   0.00000   0.01827   0.01827  -3.50927
    Y2        7.52885  -0.01636   0.00000   0.01615   0.01615   7.54500
    Z2        9.26887   0.02240   0.00000   0.04952   0.04952   9.31838
    X3       -3.26944   0.00309   0.00000   0.03564   0.03564  -3.23381
    Y3        9.71392   0.00129   0.00000   0.03571   0.03571   9.74963
    Z3        5.98629   0.00046   0.00000  -0.01464  -0.01464   5.97164
    X4       -0.36633  -0.00255   0.00000   0.00665   0.00665  -0.35968
    Y4        8.30955   0.00174   0.00000   0.01786   0.01786   8.32741
    Z4        6.99351   0.00000   0.00000  -0.02208  -0.02208   6.97143
    X5       -1.64232   0.00061   0.00000   0.05349   0.05349  -1.58883
    Y5       10.94540   0.00015   0.00000   0.04208   0.04208  10.98748
    Z5        8.64639  -0.00290   0.00000  -0.04804  -0.04804   8.59835
    X6       -4.76583   0.01124   0.00000  -0.02061  -0.02061  -4.78644
    Y6        6.06650   0.01350   0.00000  -0.00946  -0.00946   6.05703
    Z6       10.81912  -0.00800   0.00000  -0.02145  -0.02145  10.79768
    X7       -4.68273   0.00242   0.00000  -0.00290  -0.00290  -4.68563
    Y7        6.06094   0.00339   0.00000   0.04257   0.04257   6.10351
    Z7       12.87532  -0.00112   0.00000  -0.02235  -0.02235  12.85297
    X8       -6.46058  -0.02043   0.00000  -0.03984  -0.03984  -6.50043
    Y8        4.21658  -0.02407   0.00000  -0.10122  -0.10122   4.11536
    Z8       10.08182   0.00818   0.00000   0.03100   0.03100  10.11282
    X9       -6.55265   0.00257   0.00000  -0.05712  -0.05712  -6.60977
    Y9        4.05624   0.00366   0.00000   0.02157   0.02157   4.07780
    Z9        8.22506  -0.00559   0.00000   0.00460   0.00460   8.22966
         Item               Value     Threshold  Converged?
 Maximum Force            0.024070     0.000450     NO 
 RMS     Force            0.010653     0.000300     NO 
 Maximum Displacement     0.101219     0.001800     NO 
 RMS     Displacement     0.037058     0.001200     NO 
 Predicted change in Energy=-3.051983D-03
 Lowest energy point so far.  Saving SCF results.
 GradGradGradGradGradGradGradGradGradGradGradGradGradGradGradGradGradGrad

 Leave Link  103 at Wed Jan  6 11:31:48 2021, MaxMem=    33554432 cpu:         0.0
 (Enter /apps/applications/gaussian/G09.D01/2/default/g09/l202.exe)
                          Input orientation:                          
 ---------------------------------------------------------------------
 Center     Atomic      Atomic             Coordinates (Angstroms)
 Number     Number       Type             X           Y           Z
 ---------------------------------------------------------------------
      1          6           0       -1.118564    4.875138    4.044000
      2          6           0       -1.857025    3.992642    4.931076
      3          1           0       -1.711256    5.159283    3.160058
      4          1           0       -0.190332    4.406675    3.689121
      5          1           0       -0.840773    5.814326    4.550049
      6          6           0       -2.532874    3.205243    5.713884
      7          1           0       -2.479528    3.229837    6.801500
      8          8           0       -3.439877    2.177757    5.351473
      9          1           0       -3.497740    2.157881    4.354950
 ---------------------------------------------------------------------
                    Distance matrix (angstroms):
                    1          2          3          4          5
     1  C    0.000000
     2  C    1.452938   0.000000
     3  H    1.101533   2.125748   0.000000
     4  H    1.098640   2.119373   1.777508   0.000000
     5  H    1.102420   2.120491   1.766040   1.773627   0.000000
     6  C    2.752695   1.299829   3.318939   3.321236   3.320396
     7  H    3.487556   2.113733   4.192029   4.038845   3.799228
     8  O    3.791285   2.444578   4.084106   4.276801   4.541173
     9  H    3.625004   2.527887   3.691572   4.054547   4.524061
                    6          7          8          9
     6  C    0.000000
     7  H    1.089202   0.000000
     8  O    1.417647   2.032664   0.000000
     9  H    1.968409   2.858576   0.998399   0.000000
 Stoichiometry    C3H5O(2)
 Framework group  C1[X(C3H5O)]
 Deg. of freedom    21
 Full point group                 C1      NOp   1
 RotChk:  IX=0 Diff= 1.34D-02
 Largest Abelian subgroup         C1      NOp   1
 Largest concise Abelian subgroup C1      NOp   1
                         Standard orientation:                         
 ---------------------------------------------------------------------
 Center     Atomic      Atomic             Coordinates (Angstroms)
 Number     Number       Type             X           Y           Z
 ---------------------------------------------------------------------
      1          6           0        1.935480   -0.177206    0.000616
      2          6           0        0.532259    0.199587    0.005468
      3          1           0        2.117885   -1.074991   -0.611009
      4          1           0        2.302048   -0.382630    1.015722
      5          1           0        2.565770    0.622759   -0.421426
      6          6           0       -0.726619    0.523187   -0.002750
      7          1           0       -1.095453    1.548036   -0.004961
      8          8           0       -1.852375   -0.338430    0.000905
      9          1           0       -1.517975   -1.279141   -0.005576
 ---------------------------------------------------------------------
 Rotational constants (GHZ):     37.9603098      3.8613431      3.5841467
 Leave Link  202 at Wed Jan  6 11:31:48 2021, MaxMem=    33554432 cpu:         0.0
 (Enter /apps/applications/gaussian/G09.D01/2/default/g09/l301.exe)
 Standard basis: 3-21G (6D, 7F)
 Ernie: Thresh=  0.10000D-02 Tol=  0.10000D-05 Strict=F.
 There are    46 symmetry adapted cartesian basis functions of A   symmetry.
 There are    46 symmetry adapted basis functions of A   symmetry.
    46 basis functions,    75 primitive gaussians,    46 cartesian basis functions
    16 alpha electrons       15 beta electrons
       nuclear repulsion energy       105.9285507223 Hartrees.
 IExCor=  402 DFT=T Ex+Corr=B3LYP ExCW=0 ScaHFX=  0.200000
 ScaDFX=  0.800000  0.720000  1.000000  0.810000 ScalE2=  1.000000  1.000000
 IRadAn=      0 IRanWt=     -1 IRanGd=            0 ICorTp=0 IEmpDi=  4
 NAtoms=    9 NActive=    9 NUniq=    9 SFac= 1.00D+00 NAtFMM=   60 NAOKFM=F Big=F
 Integral buffers will be    131072 words long.
 Raffenetti 2 integral format.
 Two-electron integral symmetry is turned on.
 Leave Link  301 at Wed Jan  6 11:31:48 2021, MaxMem=    33554432 cpu:         0.1
 (Enter /apps/applications/gaussian/G09.D01/2/default/g09/l302.exe)
 NPDir=0 NMtPBC=     1 NCelOv=     1 NCel=       1 NClECP=     1 NCelD=      1
         NCelK=      1 NCelE2=     1 NClLst=     1 CellRange=     0.0.
 One-electron integrals computed using PRISM.
 NBasis=    46 RedAO= T EigKep=  3.27D-03  NBF=    46
 NBsUse=    46 1.00D-06 EigRej= -1.00D+00 NBFU=    46
 Precomputing XC quadrature grid using
 IXCGrd= 4 IRadAn=           0 IRanWt=          -1 IRanGd=           0 AccXCQ= 0.00D+00.
 Generated NRdTot=       0 NPtTot=           0 NUsed=           0 NTot=          32
 NSgBfM=    46    46    46    46    46 MxSgAt=     9 MxSgA2=     9.
 Leave Link  302 at Wed Jan  6 11:31:48 2021, MaxMem=    33554432 cpu:         0.2
 (Enter /apps/applications/gaussian/G09.D01/2/default/g09/l303.exe)
 DipDrv:  MaxL=1.
 Leave Link  303 at Wed Jan  6 11:31:48 2021, MaxMem=    33554432 cpu:         0.1
 (Enter /apps/applications/gaussian/G09.D01/2/default/g09/l401.exe)
 Initial guess from the checkpoint file:  "/nobackup/chmrsh/Scratch/Gau-112836.chk"
 B after Tr=     0.000000    0.000000    0.000000
         Rot=    0.999996   -0.001487    0.000335    0.002322 Ang=  -0.32 deg.
 Guess basis will be translated and rotated to current coordinates.
 JPrj=2 DoOrth=T DoCkMO=T.
 Initial guess <Sx>= 0.0000 <Sy>= 0.0000 <Sz>= 0.5000 <S**2>= 0.7593 S= 0.5046
 Generating alternative initial guess.
 ExpMin= 1.83D-01 ExpMax= 3.22D+02 ExpMxC= 3.22D+02 IAcc=1 IRadAn=         1 AccDes= 0.00D+00
 Harris functional with IExCor=  402 and IRadAn=       1 diagonalized for initial guess.
 HarFok:  IExCor=  402 AccDes= 0.00D+00 IRadAn=         1 IDoV= 1 UseB2=F ITyADJ=14
 ICtDFT=  3500011 ScaDFX=  1.000000  1.000000  1.000000  1.000000
 FoFCou: FMM=F IPFlag=           0 FMFlag=      100000 FMFlg1=           0
         NFxFlg=           0 DoJE=T BraDBF=F KetDBF=T FulRan=T
         wScrn=  0.000000 ICntrl=     500 IOpCl=  0 I1Cent=   200000004 NGrid=           0
         NMat0=    1 NMatS0=      1 NMatT0=    0 NMatD0=    1 NMtDS0=    0 NMtDT0=    0
 Petite list used in FoFCou.
 Harris En= -191.371538636762    
 Leave Link  401 at Wed Jan  6 11:31:49 2021, MaxMem=    33554432 cpu:         0.3
 (Enter /apps/applications/gaussian/G09.D01/2/default/g09/l508.exe)
 Direct SCF.
 Tight linear equation convergence will be used.
 UB3LYP wavefunction.
 Quadratic Convergence SCF Method.
 Line search only if initial step raises energy.
 Integral symmetry usage will be decided dynamically.
 ReadGW:  IGet=1 IStart=         402 Next=         402 LGW=           0.
 Keep R1 and R2 ints in memory in canonical form, NReq=2054798.
 FoFCou: FMM=F IPFlag=           0 FMFlag=           0 FMFlg1=           0
         NFxFlg=           0 DoJE=F BraDBF=F KetDBF=F FulRan=T
         wScrn=  0.000000 ICntrl=     600 IOpCl=  0 I1Cent=           0 NGrid=           0
         NMat0=    1 NMatS0=   1081 NMatT0=    0 NMatD0=    1 NMtDS0=    0 NMtDT0=    0
 Symmetry not used in FoFCou.
 Iteration   1 EE= -191.372863111311                                    Grad=6.635D-02 Max rot=    0.5341 deg.
 Gradient too large for Newton-Raphson -- use scaled steepest descent instead.
 Alpha Gap=     0.476 HL deriv= 6.49D-03
  Beta Gap=     0.472 HL deriv= 5.98D-04
     ILin= 1 X=0.000D+00 Y=-1.913728631113D+02 DE= 0.00D+00 F= -4.33D-03
     ILin= 2 X=3.000D-01 Y=-1.913739548935D+02 DE=-1.09D-03 F= -2.94D-03
     ILin= 3 X=6.000D-01 Y=-1.913746289335D+02 DE=-1.77D-03 F= -1.55D-03
     ILin= 4 X=1.200D+00 Y=-1.913747217131D+02 DE=-1.86D-03 F=  1.24D-03
     Accept linear search using points  3 and  4.
     An  expanding polynomial of degree  4 produced  0.9134
 Iteration   2 EE= -191.374886363489     Delta-E=       -0.002023252178 Grad=2.969D-02 Max rot=    0.3499 deg.
 Gradient too large for Newton-Raphson -- use scaled steepest descent instead.
 Alpha Gap=     0.478 HL deriv= 2.25D-03
  Beta Gap=     0.476 HL deriv= 4.36D-04
     ILin= 1 X=0.000D+00 Y=-1.913748863635D+02 DE= 0.00D+00 F= -1.30D-03
     ILin= 2 X=5.000D-01 Y=-1.913752204028D+02 DE=-3.34D-04 F= -3.38D-05
     Reject lnstep minimum 6.148D-01 FVal=-1.913752258140D+02 Lims=  0.00D+00  5.00D-01
     ILin= 3 X=1.000D+00 Y=-1.913749199895D+02 DE=-3.36D-05 F=  1.24D-03
     An  expanding polynomial of degree  3 produced  0.5133
     Minimum is close to point  2 DX=  1.33D-02 DF= -2.23D-07 DXR=  2.58D-02 DFR=  6.67D-04 which will be used.
 Iteration   3 EE= -191.375220402827     Delta-E=       -0.000334039338 Grad=1.511D-02 Max rot=    0.1472 deg.
 Gradient too large for Newton-Raphson -- use scaled steepest descent instead.
 Alpha Gap=     0.477 HL deriv= 8.13D-04
  Beta Gap=     0.473 HL deriv= 1.12D-04
     ILin= 1 X=0.000D+00 Y=-1.913752204028D+02 DE= 0.00D+00 F= -3.80D-04
     ILin= 2 X=7.000D-01 Y=-1.913753668114D+02 DE=-1.46D-04 F= -3.78D-05
     Reject lnstep minimum 1.334D+00 FVal=-1.913753923468D+02 Lims=  0.00D+00  7.00D-01
     ILin= 3 X=1.400D+00 Y=-1.913752733090D+02 DE=-5.29D-05 F=  3.05D-04
     An  expanding polynomial of degree  3 produced  0.7772
     Minimum is close to point  2 DX=  7.72D-02 DF= -1.46D-06 DXR=  9.93D-02 DFR=  9.96D-03 which will be used.
 Iteration   4 EE= -191.375366811368     Delta-E=       -0.000146408540 Grad=1.255D-02 Max rot=    0.1400 deg.
 Gradient too large for Newton-Raphson -- use scaled steepest descent instead.
 Alpha Gap=     0.477 HL deriv= 1.67D-03
  Beta Gap=     0.474 HL deriv= 2.46D-05
     ILin= 1 X=0.000D+00 Y=-1.913753668114D+02 DE= 0.00D+00 F= -2.54D-04
     ILin= 2 X=6.000D-01 Y=-1.913754414143D+02 DE=-7.46D-05 F=  5.81D-06
     Accept linear search using points  1 and  2.
     An  expanding polynomial of degree  2 produced  0.5194
 Iteration   5 EE= -191.375440472828     Delta-E=       -0.000073661460 Grad=7.892D-03 Max rot=    0.0816 deg.
 QCNR:  CnvC1=3.07D-09 CnvC2=3.07D-08
 LinEq1:  Iter=  0 NonCon=     1 RMS=4.73D-04 Max=5.37D-03 NDo=     1
 AX will form     1 AO Fock derivatives at one time.
 LinEq1:  Iter=  1 NonCon=     1 RMS=2.42D-04 Max=2.75D-03 NDo=     1
 LinEq1:  Iter=  2 NonCon=     1 RMS=1.37D-04 Max=2.21D-03 NDo=     1
 LinEq1:  Iter=  3 NonCon=     1 RMS=1.17D-04 Max=1.59D-03 NDo=     1
 LinEq1:  Iter=  4 NonCon=     1 RMS=4.67D-05 Max=6.94D-04 NDo=     1
 LinEq1:  Iter=  5 NonCon=     1 RMS=2.14D-05 Max=1.81D-04 NDo=     1
 LinEq1:  Iter=  6 NonCon=     1 RMS=8.91D-06 Max=6.14D-05 NDo=     1
 LinEq1:  Iter=  7 NonCon=     1 RMS=2.76D-06 Max=2.45D-05 NDo=     1
 LinEq1:  Iter=  8 NonCon=     1 RMS=1.39D-06 Max=1.31D-05 NDo=     1
 LinEq1:  Iter=  9 NonCon=     1 RMS=4.65D-07 Max=3.81D-06 NDo=     1
 LinEq1:  Iter= 10 NonCon=     1 RMS=1.20D-07 Max=1.34D-06 NDo=     1
 LinEq1:  Iter= 11 NonCon=     1 RMS=3.23D-08 Max=3.87D-07 NDo=     1
 LinEq1:  Iter= 12 NonCon=     1 RMS=9.97D-09 Max=7.05D-08 NDo=     1
 LinEq1:  Iter= 13 NonCon=     0 RMS=2.16D-09 Max=2.25D-08 NDo=     1
 Linear equations converged to 3.074D-09 3.074D-08 after    13 iterations.
 Angle between quadratic step and gradient=  39.39 degrees.
     ILin= 1 X=0.000D+00 Y=-1.913754404728D+02 DE= 0.00D+00 F= -2.23D-04
     ILin= 2 X=1.000D+00 Y=-1.913755518768D+02 DE=-1.11D-04 F=  1.76D-07
     Accept linear search using points  1 and  2.
     An  expanding polynomial of degree  2 produced  0.9992
     Minimum is close to point  2 DX= -7.89D-04 DF= -6.95D-11 DXR=  7.90D-04 DFR=  6.24D-07 which will be used.
 Iteration   6 EE= -191.375551876828     Delta-E=       -0.000111404000 Grad=4.054D-05 Max rot=    0.0006 deg.
 QCNR:  CnvC1=4.05D-10 CnvC2=4.05D-09
 LinEq1:  Iter=  0 NonCon=     1 RMS=2.27D-06 Max=3.83D-05 NDo=     1
 LinEq1:  Iter=  1 NonCon=     1 RMS=1.96D-06 Max=2.32D-05 NDo=     1
 LinEq1:  Iter=  2 NonCon=     1 RMS=8.23D-07 Max=8.61D-06 NDo=     1
 LinEq1:  Iter=  3 NonCon=     1 RMS=5.39D-07 Max=8.93D-06 NDo=     1
 LinEq1:  Iter=  4 NonCon=     1 RMS=2.71D-07 Max=3.14D-06 NDo=     1
 LinEq1:  Iter=  5 NonCon=     1 RMS=1.49D-07 Max=1.11D-06 NDo=     1
 LinEq1:  Iter=  6 NonCon=     1 RMS=6.56D-08 Max=5.51D-07 NDo=     1
 LinEq1:  Iter=  7 NonCon=     1 RMS=3.44D-08 Max=3.73D-07 NDo=     1
 LinEq1:  Iter=  8 NonCon=     1 RMS=1.08D-08 Max=1.95D-07 NDo=     1
 LinEq1:  Iter=  9 NonCon=     1 RMS=2.28D-09 Max=2.60D-08 NDo=     1
 LinEq1:  Iter= 10 NonCon=     1 RMS=4.76D-10 Max=3.78D-09 NDo=     1
 LinEq1:  Iter= 11 NonCon=     0 RMS=9.84D-11 Max=6.99D-10 NDo=     1
 Linear equations converged to 4.054D-10 4.054D-09 after    11 iterations.
 Angle between quadratic step and gradient=  50.41 degrees.
     ILin= 1 X=0.000D+00 Y=-1.913755518768D+02 DE= 0.00D+00 F= -2.44D-09
     ILin= 2 X=1.000D+00 Y=-1.913755518781D+02 DE=-1.22D-09
 Iteration   7 EE= -191.375551878051     Delta-E=       -0.000000001223 Grad=8.539D-10 Max rot=    0.0000 deg.
 Rotation gradient small -- convergence achieved.
 SCF Done:  E(UB3LYP) =  -191.375551878     a.u. after    7 cycles
            Convg  =    0.8539D-09                    37 Fock formations.
              S**2 =  0.7591                  -V/T =  2.0089
 <Sx>= 0.0000 <Sy>= 0.0000 <Sz>= 0.5000 <S**2>= 0.7591 S= 0.5045
 <L.S>= 0.000000000000E+00
 Annihilation of the first spin contaminant:
 S**2 before annihilation     0.7591,   after     0.7501
 Leave Link  508 at Wed Jan  6 11:32:14 2021, MaxMem=    33554432 cpu:        24.6
 (Enter /apps/applications/gaussian/G09.D01/2/default/g09/l801.exe)
 DoSCS=F DFT=T ScalE2(SS,OS)=  1.000000  1.000000
 Range of M.O.s used for correlation:     1    46
 NBasis=    46 NAE=    16 NBE=    15 NFC=     0 NFV=     0
 NROrb=     46 NOA=    16 NOB=    15 NVA=    30 NVB=    31
 Leave Link  801 at Wed Jan  6 11:32:14 2021, MaxMem=    33554432 cpu:         0.1
 (Enter /apps/applications/gaussian/G09.D01/2/default/g09/l1101.exe)
 Using compressed storage, NAtomX=     9.
 Will process     10 centers per pass.
 Leave Link 1101 at Wed Jan  6 11:32:14 2021, MaxMem=    33554432 cpu:         0.1
 (Enter /apps/applications/gaussian/G09.D01/2/default/g09/l1102.exe)
 Symmetrizing basis deriv contribution to polar:
 IMax=3 JMax=2 DiffMx= 0.00D+00
 Leave Link 1102 at Wed Jan  6 11:32:14 2021, MaxMem=    33554432 cpu:         0.1
 (Enter /apps/applications/gaussian/G09.D01/2/default/g09/l1110.exe)
 Forming Gx(P) for the SCF density, NAtomX=     9.
 Integral derivatives from FoFJK, PRISM(SPDF).
 Do as many integral derivatives as possible in FoFJK.
 G2DrvN: MDV=      33554256.
 G2DrvN: will do    10 centers at a time, making    1 passes.
 Calling FoFCou, ICntrl=  3107 FMM=F I1Cent=   0 AccDes= 0.00D+00.
 FoFJK:  IHMeth= 1 ICntrl=    3107 DoSepK=F KAlg= 0 I1Cent=   0 FoldK=F
 IRaf=         0 NMat=   1 IRICut=       1 DoRegI=T DoRafI=F ISym2E= 0.
 FoFCou: FMM=F IPFlag=           0 FMFlag=      100000 FMFlg1=           0
         NFxFlg=           0 DoJE=F BraDBF=F KetDBF=F FulRan=T
         wScrn=  0.000000 ICntrl=    3107 IOpCl=  1 I1Cent=           0 NGrid=           0
         NMat0=    1 NMatS0=      1 NMatT0=    0 NMatD0=    1 NMtDS0=    0 NMtDT0=    0
 Symmetry not used in FoFCou.
 End of G2Drv F.D. properties file   721 does not exist.
 End of G2Drv F.D. properties file   722 does not exist.
 End of G2Drv F.D. properties file   788 does not exist.
 Leave Link 1110 at Wed Jan  6 11:32:24 2021, MaxMem=    33554432 cpu:         9.8
 (Enter /apps/applications/gaussian/G09.D01/2/default/g09/l1002.exe)
 Minotr:  UHF open shell wavefunction.
          IDoAtm=111111111
          Direct CPHF calculation.
          Differentiating once with respect to electric field.
                with respect to dipole field.
          Differentiating once with respect to nuclear coordinates.
          Requested convergence is 1.0D-08 RMS, and 1.0D-07 maximum.
          Secondary convergence is 1.0D-12 RMS, and 1.0D-12 maximum.
          NewPWx=T KeepS1=F KeepF1=F KeepIn=T MapXYZ=F SortEE=F KeepMc=T.
          MDV=      33554246 using IRadAn=       2.
 Generate precomputed XC quadrature information.
 Keep R1 and R2 ints in memory in canonical form, NReq=2035813.
 FoFCou: FMM=F IPFlag=           0 FMFlag=           0 FMFlg1=           0
         NFxFlg=           0 DoJE=F BraDBF=F KetDBF=F FulRan=T
         wScrn=  0.000000 ICntrl=     600 IOpCl=  0 I1Cent=           0 NGrid=           0
         NMat0=    1 NMatS0=   1081 NMatT0=    0 NMatD0=    1 NMtDS0=    0 NMtDT0=    0
 Symmetry not used in FoFCou.
          Solving linear equations simultaneously, MaxMat=       0.
          There are    30 degrees of freedom in the 1st order CPHF.  IDoFFX=6 NUNeed=     3.
     27 vectors produced by pass  0 Test12= 3.15D-15 3.33D-09 XBig12= 1.14D+02 5.98D+00.
 AX will form    27 AO Fock derivatives at one time.
     27 vectors produced by pass  1 Test12= 3.15D-15 3.33D-09 XBig12= 2.61D+01 1.08D+00.
     27 vectors produced by pass  2 Test12= 3.15D-15 3.33D-09 XBig12= 2.71D-01 8.43D-02.
     27 vectors produced by pass  3 Test12= 3.15D-15 3.33D-09 XBig12= 8.14D-04 5.20D-03.
     27 vectors produced by pass  4 Test12= 3.15D-15 3.33D-09 XBig12= 2.44D-06 2.62D-04.
     26 vectors produced by pass  5 Test12= 3.15D-15 3.33D-09 XBig12= 5.06D-09 1.01D-05.
      6 vectors produced by pass  6 Test12= 3.15D-15 3.33D-09 XBig12= 1.04D-11 4.34D-07.
      2 vectors produced by pass  7 Test12= 3.15D-15 3.33D-09 XBig12= 2.55D-14 2.66D-08.
 InvSVY:  IOpt=1 It=  1 EMax= 5.33D-15
 Solved reduced A of dimension   169 with    30 vectors.
 FullF1:  Do perturbations    1 to     3.
 Isotropic polarizability for W=    0.000000       32.42 Bohr**3.
 End of Minotr F.D. properties file   721 does not exist.
 End of Minotr F.D. properties file   722 does not exist.
 End of Minotr F.D. properties file   788 does not exist.
 Leave Link 1002 at Wed Jan  6 11:32:33 2021, MaxMem=    33554432 cpu:         8.8
 (Enter /apps/applications/gaussian/G09.D01/2/default/g09/l701.exe)
 Compute integral second derivatives.
 ... and contract with generalized density number  0.
 Leave Link  701 at Wed Jan  6 11:32:33 2021, MaxMem=    33554432 cpu:         0.1
 (Enter /apps/applications/gaussian/G09.D01/2/default/g09/l702.exe)
 L702 exits ... SP integral derivatives will be done elsewhere.
 Leave Link  702 at Wed Jan  6 11:32:34 2021, MaxMem=    33554432 cpu:         0.1
 (Enter /apps/applications/gaussian/G09.D01/2/default/g09/l703.exe)
 Compute integral second derivatives, UseDBF=F ICtDFT=           0.
 Integral derivatives from FoFJK, PRISM(SPDF).
 Calling FoFJK, ICntrl=    100127 FMM=F ISym2X=0 I1Cent= 0 IOpClX= 1 NMat=1 NMatS=1 NMatT=0.
 FoFJK:  IHMeth= 1 ICntrl=  100127 DoSepK=F KAlg= 0 I1Cent=   0 FoldK=F
 IRaf=         0 NMat=   1 IRICut=       1 DoRegI=T DoRafI=F ISym2E= 0.
 FoFCou: FMM=F IPFlag=           0 FMFlag=      100000 FMFlg1=         800
         NFxFlg=           0 DoJE=F BraDBF=F KetDBF=F FulRan=T
         wScrn=  0.000000 ICntrl=  100127 IOpCl=  1 I1Cent=           0 NGrid=           0
         NMat0=    1 NMatS0=      1 NMatT0=    0 NMatD0=    1 NMtDS0=    0 NMtDT0=    0
 Symmetry not used in FoFCou.
 Leave Link  703 at Wed Jan  6 11:32:42 2021, MaxMem=    33554432 cpu:         8.4
 (Enter /apps/applications/gaussian/G09.D01/2/default/g09/l716.exe)
 Dipole        = 7.50220386D-01-3.91962002D-01-1.09880167D-02
 Polarizability= 5.11702921D+01-2.13126140D+00 2.94843946D+01
                 5.70247788D-02 9.17853878D-03 1.66154667D+01
 ***** Axes restored to original set *****
 -------------------------------------------------------------------
 Center     Atomic                   Forces (Hartrees/Bohr)
 Number     Number              X              Y              Z
 -------------------------------------------------------------------
      1        6           0.001482824    0.001840491   -0.001334303
      2        6          -0.001104889   -0.001526568    0.002024644
      3        1           0.000095583    0.000253888   -0.000195542
      4        1           0.000033149    0.000114407   -0.000153267
      5        1           0.000240314    0.000339859   -0.000243097
      6        6           0.001604030    0.001165618    0.000395719
      7        1          -0.000010957    0.000240597   -0.000158644
      8        8          -0.002242547   -0.001969174   -0.001897747
      9        1          -0.000097507   -0.000459119    0.001562237
 -------------------------------------------------------------------
 Cartesian Forces:  Max     0.002242547 RMS     0.001134299
 Force constants in Cartesian coordinates: 
                1             2             3             4             5 
      1  0.507163D+00
      2 -0.234690D-01  0.485583D+00
      3 -0.191917D-02  0.728157D-02  0.482502D+00
      4 -0.103416D+00 -0.546620D-01  0.770541D-01  0.320967D+00
      5 -0.577390D-01 -0.122621D+00  0.910584D-01  0.297476D+00  0.421495D+00
      6  0.755273D-01  0.856868D-01 -0.109931D+00 -0.313061D+00 -0.368544D+00
      7 -0.121943D+00  0.326269D-01 -0.103236D+00  0.107501D-01 -0.776188D-02
      8  0.369720D-01 -0.556665D-01  0.472631D-01  0.447452D-02 -0.148215D-01
      9 -0.110673D+00  0.441900D-01 -0.198053D+00  0.917609D-03  0.149339D-01
     10 -0.223391D+00  0.966477D-01  0.639968D-01 -0.178376D-01 -0.283095D-02
     11  0.940798D-01 -0.967123D-01 -0.341238D-01 -0.246139D-01  0.849275D-02
     12  0.655281D-01 -0.357607D-01 -0.710256D-01  0.218321D-01 -0.268608D-02
     13 -0.592646D-01 -0.493695D-01 -0.296518D-01 -0.755273D-02 -0.173093D-01
     14 -0.462006D-01 -0.213243D+00 -0.104401D+00 -0.110783D-01 -0.227760D-01
     15 -0.250125D-01 -0.953305D-01 -0.984216D-01  0.611705D-02  0.227934D-01
     16 -0.291962D-02  0.181615D-02 -0.276009D-02 -0.184928D+00 -0.173407D+00
     17  0.323131D-03 -0.862069D-03 -0.362305D-02 -0.173165D+00 -0.241130D+00
     18 -0.146002D-02 -0.609667D-02 -0.511457D-02  0.185500D+00  0.218542D+00
     19  0.208777D-02 -0.205155D-02 -0.320465D-03  0.143706D-02 -0.718183D-02
     20 -0.447652D-03  0.202917D-02  0.138931D-02 -0.692706D-02  0.128808D-03
     21 -0.139713D-02 -0.948423D-03 -0.110255D-02  0.669504D-02  0.790303D-02
     22  0.287658D-02 -0.183927D-02 -0.330274D-02 -0.215408D-01 -0.338107D-01
     23 -0.351948D-02  0.252455D-02 -0.481559D-02 -0.341641D-01 -0.313806D-01
     24 -0.992629D-03  0.905726D-03  0.643764D-03  0.154919D-01  0.166089D-01
     25 -0.119334D-02  0.300637D-03  0.139113D-03  0.212077D-02  0.256379D-02
     26  0.000000D+00 -0.103241D-02 -0.290131D-04  0.265940D-02  0.261248D-02
     27  0.399176D-03  0.721274D-04  0.502321D-03 -0.546632D-03 -0.610120D-03
                6             7             8             9            10 
      6  0.395895D+00
      7  0.163263D-01  0.134052D+00
      8  0.207956D-01 -0.337284D-01  0.679237D-01
      9 -0.191427D-01  0.117831D+00 -0.571512D-01  0.223708D+00
     10  0.117607D-01 -0.167199D-01  0.925777D-02  0.550220D-02  0.249619D+00
     11  0.103298D-01  0.600529D-02 -0.487855D-02 -0.315994D-02 -0.101503D+00
     12 -0.126906D-01 -0.239982D-01  0.124417D-01  0.943417D-02 -0.771775D-01
     13  0.273570D-03 -0.585857D-02 -0.168119D-01 -0.118028D-01  0.738809D-02
     14  0.659478D-02  0.271130D-02  0.648919D-02  0.263316D-02 -0.305402D-02
     15  0.724391D-02 -0.734550D-02 -0.248597D-01 -0.151684D-01 -0.329382D-02
     16  0.181855D+00  0.488084D-03  0.158784D-02 -0.323045D-02  0.146565D-02
     17  0.214190D+00  0.369897D-03  0.204983D-02 -0.240247D-02  0.334088D-02
     18 -0.254797D+00 -0.477755D-04  0.131629D-02  0.223164D-04 -0.625422D-03
     19  0.171129D-01 -0.326476D-03 -0.674884D-03  0.116264D-02  0.590598D-03
     20  0.206784D-01 -0.716635D-04  0.489470D-04 -0.104619D-03 -0.535146D-03
     21 -0.180904D-01  0.318826D-03  0.453749D-03 -0.694782D-03  0.765468D-04
     22  0.887862D-02 -0.609933D-03 -0.116812D-02  0.693676D-03 -0.872900D-03
     23  0.898880D-02  0.346558D-04 -0.941237D-03  0.105195D-02 -0.165475D-02
     24  0.894962D-02  0.156918D-03 -0.356142D-03 -0.256183D-03 -0.412112D-03
     25  0.132599D-02  0.167942D-03  0.911648D-04 -0.401027D-03 -0.241898D-03
     26  0.127987D-02 -0.186081D-03 -0.203966D-03  0.931171D-05  0.331593D-03
     27  0.256260D-02 -0.628130D-05  0.965990D-04  0.150758D-03  0.172631D-03
               11            12            13            14            15 
     11  0.107788D+00
     12  0.348825D-01  0.795531D-01
     13  0.256557D-01  0.141532D-01  0.653246D-01
     14 -0.138740D-01 -0.851276D-02  0.587882D-01  0.244725D+00
     15 -0.858237D-02 -0.627220D-02  0.283303D-01  0.105490D+00  0.112804D+00
     16  0.415191D-03 -0.610450D-03  0.135782D-02  0.102818D-02 -0.330388D-03
     17  0.946916D-03 -0.224104D-02  0.125944D-03  0.418949D-03 -0.382043D-03
     18  0.102319D-02  0.961420D-03 -0.199634D-02 -0.251496D-02  0.971614D-04
     19  0.656357D-03 -0.691961D-04  0.885237D-04 -0.104962D-03  0.515953D-03
     20 -0.461216D-03  0.551071D-04 -0.576511D-03 -0.393002D-03 -0.133758D-03
     21  0.174336D-05 -0.123035D-03  0.150353D-03  0.224156D-03 -0.539463D-04
     22 -0.445164D-03  0.241427D-03 -0.166566D-02 -0.231660D-02  0.116665D-02
     23 -0.151702D-02  0.206771D-02 -0.603331D-03 -0.141375D-02  0.102084D-02
     24 -0.497302D-03  0.305624D-03  0.492817D-03  0.326250D-03 -0.134607D-03
     25 -0.250204D-03  0.100452D-03  0.182499D-03  0.226848D-03 -0.147800D-03
     26  0.215207D-03 -0.246550D-03  0.100724D-03  0.663204D-04 -0.163502D-04
     27  0.126205D-03 -0.142763D-03  0.507099D-04  0.159839D-03 -0.945329D-04
               16            17            18            19            20 
     16  0.336589D+00
     17  0.254921D+00  0.410888D+00
     18 -0.121463D+00 -0.156335D+00  0.684602D+00
     19 -0.403014D-01  0.213994D-02 -0.462698D-02  0.391911D-01
     20  0.223434D-02 -0.397778D-01  0.377947D-02  0.230003D-01  0.445708D-01
     21 -0.142666D-01 -0.740498D-02 -0.312820D+00  0.138602D-01  0.515570D-02
     22 -0.103655D+00 -0.805784D-01 -0.204070D-01 -0.247255D-02 -0.116660D-01
     23 -0.792469D-01 -0.123238D+00 -0.201657D-01 -0.107680D-01 -0.449539D-02
     24 -0.449708D-01 -0.491660D-01 -0.970500D-01 -0.256686D-01 -0.287167D-01
     25 -0.809585D-02 -0.747679D-02 -0.348729D-01 -0.294664D-03 -0.501061D-02
     26 -0.934872D-02 -0.929589D-02 -0.395492D-01 -0.501534D-02 -0.165034D-02
     27  0.577664D-02  0.736467D-02 -0.159011D-01 -0.196655D-02 -0.210293D-02
               21            22            23            24            25 
     21  0.344627D+00
     22 -0.428967D-02  0.151542D+00
     23 -0.407248D-02  0.145338D+00  0.187279D+00
     24 -0.134111D-01  0.522521D-01  0.377899D-01  0.512885D+00
     25 -0.114756D-02 -0.236016D-01 -0.154163D-01  0.365041D-02  0.309562D-01
     26 -0.131249D-02 -0.135139D-01 -0.268174D-01  0.231054D-01  0.249714D-01
     27  0.166884D-02 -0.352330D-01 -0.218654D-01 -0.411932D+00  0.313533D-01
               26            27 
     26  0.361060D-01
     27  0.167590D-01  0.423186D+00
 Leave Link  716 at Wed Jan  6 11:32:42 2021, MaxMem=    33554432 cpu:         0.0
 (Enter /apps/applications/gaussian/G09.D01/2/default/g09/l103.exe)

 GradGradGradGradGradGradGradGradGradGradGradGradGradGradGradGradGradGrad
 Berny optimization.
 Search for a saddle point.
 Step number   2 out of a maximum of  100
 All quantities printed in internal units (Hartrees-Bohrs-Radians)
 Swapping is turned off.
 Second derivative matrix not updated -- analytic derivatives used.
 ITU=  0  0
     Eigenvalues ---   -0.00966  -0.00002   0.00868   0.01892   0.02709
     Eigenvalues ---    0.06603   0.08205   0.09588   0.11194   0.11724
     Eigenvalues ---    0.11978   0.15873   0.17039   0.23709   0.44291
     Eigenvalues ---    0.57899   0.66670   0.68451   0.70525   0.86522
     Eigenvalues ---    1.61012
 Eigenvectors required to have negative eigenvalues:
[...]
 Thermal correction to Gibbs Free Energy=         0.041473
 Sum of electronic and zero-point Energies=           -191.305611
 Sum of electronic and thermal Energies=              -191.300662
 Sum of electronic and thermal Enthalpies=            -191.299717
 Sum of electronic and thermal Free Energies=         -191.334173
 
                     E (Thermal)             CV                S
                      KCal/Mol        Cal/Mol-Kelvin    Cal/Mol-Kelvin
 Total                   47.054             15.061             72.518
 Electronic               0.000              0.000              1.377
 Translational            0.889              2.981             38.044
 Rotational               0.889              2.981             23.947
 Vibrational             45.276              9.099              9.149
 Vibration     1          0.594              1.981              5.200
 Vibration     2          0.662              1.766              1.744
 Vibration     3          0.806              1.368              0.805
 Vibration     4          0.833              1.302              0.720
                       Q            Log10(Q)             Ln(Q)
 Total Bot       0.838855D-19        -19.076313        -43.924834
 Total V=0       0.137272D+14         13.137581         30.250397
 Vib (Bot)       0.648500D-31        -31.188090        -71.813232
 Vib (Bot)    1  0.501943D+01          0.700654          1.613315
 Vib (Bot)    2  0.787279D+00         -0.103871         -0.239172
 Vib (Bot)    3  0.384777D+00         -0.414791         -0.955091
 Vib (Bot)    4  0.352040D+00         -0.453409         -1.044012
 Vib (V=0)       0.106121D+02          1.025803          2.361999
 Vib (V=0)    1  0.554427D+01          0.743844          1.712764
 Vib (V=0)    2  0.143264D+01          0.156136          0.359516
 Vib (V=0)    3  0.113091D+01          0.053430          0.123027
 Vib (V=0)    4  0.111150D+01          0.045909          0.105710
 Electronic      0.200000D+01          0.301030          0.693147
 Translational   0.169300D+08          7.228656         16.644596
 Rotational      0.382024D+05          4.582091         10.550654
 
                                                    Gaussian input prepared by AS
 E
                                                             IR Spectrum
 
     3            3 3 32                                         1         11  1 1    1      111                                     
     4            1 0 09                                         8         55  4 4    2      000     8 8           44      2         
     6            2 5 27                                         5         43  6 0    6      842     6 0           74      4       4 
     5            3 7 79                                         2         52  7 2    2      440     2 8           77      8       1 
 
     X            X X XX                                         X         XX  X X    X      XXX     X X           XX      X       X 
                  X X XX                                         X               X    X       XX     X X           XX                
                      XX                                         X               X    X       XX     X X           XX                
                       X                                         X                             X       X           X                 
                                                                 X                             X       X           X                 
                                                                 X                             X       X           X                 
                                                                 X                             X       X           X                 
                                                                 X                             X                   X                 
                                                                                               X                   X                 
                                                                                               X                   X                 
                                                                                               X                   X                 
                                                                                               X                   X                 
                                                                                               X                   X                 
                                                                                               X                   X                 
                                                                                                                   X                 
                                                                                                                   X                 
                                                                                                                   X                 
                                                                                                                   X                 
                                                                                                                   X                 
                                                                                                                   X                 
 
 ***** Axes restored to original set *****
 -------------------------------------------------------------------
 Center     Atomic                   Forces (Hartrees/Bohr)
 Number     Number              X              Y              Z
 -------------------------------------------------------------------
      1        6           0.000002326    0.000002236    0.000001602
      2        6          -0.000000041    0.000000275    0.000000593
      3        1           0.000002398   -0.000000393    0.000002451
      4        1          -0.000001406    0.000002818    0.000002288
      5        1          -0.000001994   -0.000001902   -0.000000355
      6        6          -0.000000985   -0.000001429   -0.000000826
      7        1          -0.000000569   -0.000001448   -0.000001224
      8        8           0.000000003   -0.000000741   -0.000004117
      9        1           0.000000267    0.000000585   -0.000000413
 -------------------------------------------------------------------
 Cartesian Forces:  Max     0.000004117 RMS     0.000001654
 Force constants in Cartesian coordinates: 
                1             2             3             4             5 
      1  0.498977D+00
      2 -0.293200D-01  0.483354D+00
      3  0.865454D-02  0.429018D-02  0.486592D+00
      4 -0.106574D+00 -0.532735D-01  0.746311D-01  0.339329D+00
      5 -0.544843D-01 -0.110955D+00  0.896330D-01  0.298923D+00  0.400831D+00
      6  0.686225D-01  0.815400D-01 -0.110362D+00 -0.312880D+00 -0.357431D+00
      7 -0.137632D+00  0.649254D-01 -0.979814D-01  0.126220D-01 -0.126305D-01
      8  0.683782D-01 -0.898864D-01  0.710848D-01  0.448054D-02 -0.170792D-01
      9 -0.102621D+00  0.708875D-01 -0.158811D+00 -0.248760D-02  0.158830D-01
     10 -0.165935D+00  0.973745D-01  0.807328D-01 -0.183233D-01 -0.120380D-02
     11  0.932950D-01 -0.116826D+00 -0.609569D-01 -0.208031D-01  0.102135D-01
     12  0.824334D-01 -0.647569D-01 -0.103462D+00  0.190713D-01 -0.182505D-02
     13 -0.924983D-01 -0.778657D-01 -0.613090D-01 -0.133125D-01 -0.158214D-01
     14 -0.764339D-01 -0.166275D+00 -0.956427D-01 -0.138808D-01 -0.187673D-01
     15 -0.542352D-01 -0.861081D-01 -0.108483D+00  0.121094D-01  0.183482D-01
     16 -0.133465D-02  0.142235D-02 -0.285720D-02 -0.197442D+00 -0.177362D+00
     17  0.140780D-02 -0.189082D-02 -0.456146D-02 -0.176958D+00 -0.233906D+00
     18 -0.301512D-02 -0.473832D-02 -0.623808D-02  0.188613D+00  0.211626D+00
     19  0.186582D-02 -0.788809D-03  0.752024D-03  0.163832D-04 -0.613538D-02
     20 -0.107300D-02  0.117998D-02  0.267757D-03 -0.814315D-02  0.440232D-03
     21 -0.566966D-03 -0.150558D-02 -0.988788D-03  0.876160D-02  0.664404D-02
     22  0.415440D-02 -0.261340D-02 -0.257057D-02 -0.179243D-01 -0.338725D-01
     23 -0.191202D-02  0.219296D-02 -0.436251D-02 -0.326178D-01 -0.340003D-01
     24  0.778732D-03  0.140435D-03  0.135319D-02  0.129315D-01  0.175613D-01
     25 -0.102294D-02  0.139239D-03 -0.522431D-04  0.160943D-02  0.258740D-02
     26  0.142233D-03 -0.894145D-03  0.247907D-03  0.227316D-02  0.322337D-02
     27 -0.509792D-04  0.250884D-03  0.399205D-03 -0.749861D-03 -0.439561D-03
                6             7             8             9            10 
      6  0.388219D+00
      7  0.155528D-01  0.151967D+00
      8  0.182451D-01 -0.689405D-01  0.103899D+00
      9 -0.178801D-01  0.109813D+00 -0.846066D-01  0.177356D+00
     10  0.134625D-01 -0.150560D-01  0.115014D-01  0.977340D-02  0.187218D+00
     11  0.125219D-01  0.896609D-02 -0.891435D-02 -0.768915D-02 -0.100504D+00
     12 -0.142352D-01 -0.168991D-01  0.124906D-01  0.123687D-01 -0.961789D-01
     13  0.248660D-02 -0.110734D-01 -0.155323D-01 -0.130114D-01  0.110398D-01
     14  0.540606D-02  0.750488D-02  0.107251D-01  0.684450D-02 -0.822542D-02
     15  0.898345D-02 -0.109718D-01 -0.179113D-01 -0.134885D-01 -0.830908D-02
     16  0.186624D+00  0.301779D-03  0.191186D-02 -0.306531D-02  0.156596D-02
     17  0.208941D+00  0.416760D-03  0.230274D-02 -0.211000D-02  0.301123D-02
     18 -0.247971D+00  0.560413D-03  0.100019D-02  0.745068D-03  0.544650D-03
     19  0.184875D-01 -0.303890D-03 -0.936311D-03  0.734363D-03  0.693718D-03
     20  0.197862D-01  0.147385D-03  0.531150D-03 -0.146291D-03 -0.724053D-03
     21 -0.178492D-01  0.127172D-03  0.907456D-04 -0.310591D-03  0.363164D-03
     22  0.687178D-02 -0.100730D-02 -0.112898D-02  0.123382D-02 -0.906135D-03
     23  0.937128D-02 -0.235633D-03 -0.132530D-02  0.912094D-03 -0.144938D-02
     24  0.849548D-02 -0.263599D-03 -0.587832D-03  0.619293D-04 -0.475430D-03
     25  0.772321D-03  0.181679D-03  0.266118D-03 -0.369797D-03 -0.297040D-03
     26  0.161981D-02 -0.153873D-03 -0.252353D-03  0.248904D-04  0.219214D-03
     27  0.259968D-02  0.622184D-04  0.194352D-03 -0.416348D-04  0.869297D-04
               11            12            13            14            15 
     11  0.131329D+00
     12  0.674764D-01  0.114596D+00
     13  0.185923D-01  0.123911D-01  0.106297D+00
     14 -0.151175D-01 -0.119183D-01  0.924134D-01  0.190971D+00
     15 -0.123000D-01 -0.977065D-02  0.606253D-01  0.970950D-01  0.122977D+00
     16  0.445396D-03 -0.109378D-02  0.799641D-03  0.268559D-03 -0.191903D-03
     17  0.771201D-03 -0.304539D-02 -0.769950D-04  0.401677D-03 -0.336324D-03
     18  0.933820D-03  0.100890D-02 -0.189522D-02 -0.263812D-02  0.200060D-03
     19  0.363857D-03 -0.204478D-03  0.168205D-03 -0.591574D-03  0.251873D-03
     20 -0.337338D-03  0.534091D-03 -0.589400D-03 -0.111049D-03  0.206166D-03
     21  0.231827D-03 -0.445732D-03  0.244945D-03  0.189803D-03 -0.391375D-04
     22 -0.748172D-04  0.361626D-03 -0.147445D-02 -0.119930D-02  0.798969D-03
     23 -0.125430D-02  0.137921D-02 -0.129924D-02 -0.198414D-02  0.111304D-02
     24 -0.255515D-03 -0.109649D-03  0.377833D-03  0.543643D-03 -0.313272D-03
     25 -0.280988D-03  0.118897D-03  0.541638D-04  0.144135D-03 -0.775594D-04
     26  0.136400D-03 -0.334535D-03  0.179400D-03  0.156650D-03 -0.106673D-03
     27  0.377072D-04  0.499654D-04  0.898111D-04  0.120149D-03 -0.663728D-04
               16            17            18            19            20 
     16  0.324680D+00
     17  0.246403D+00  0.424843D+00
     18 -0.172540D+00 -0.118390D+00  0.672633D+00
     19 -0.418883D-01  0.526150D-02  0.264858D-01  0.366186D-01
     20  0.347494D-02 -0.410553D-01 -0.194672D-01  0.194828D-01  0.517125D-01
     21  0.178217D-01 -0.311825D-01 -0.309449D+00 -0.244747D-01  0.333895D-01
     22 -0.826899D-01 -0.687265D-01 -0.937844D-02  0.210795D-02 -0.790173D-02
     23 -0.733754D-01 -0.137796D+00 -0.256016D-01 -0.118562D-01 -0.959549D-02
     24 -0.318933D-01 -0.560390D-01 -0.958411D-01 -0.206040D-01 -0.321596D-01
     25 -0.399278D-02 -0.107388D-01 -0.293752D-01  0.721525D-03 -0.467375D-02
     26 -0.318845D-02 -0.136704D-01 -0.427252D-01 -0.479988D-02 -0.276471D-02
     27  0.719519D-02  0.672362D-02 -0.150880D-01 -0.142845D-02 -0.241066D-02
               21            22            23            24            25 
     21  0.340441D+00
     22 -0.145699D-02  0.119969D+00
     23 -0.627046D-02  0.130206D+00  0.215969D+00
     24 -0.130942D-01 -0.107305D-01  0.865300D-01  0.511373D+00
     25 -0.819978D-03 -0.222296D-01 -0.746065D-02  0.498787D-01  0.249756D-01
     26 -0.158733D-02 -0.146890D-01 -0.322072D-01 -0.157335D-01  0.200172D-01
     27  0.173597D-02  0.148703D-01 -0.630711D-01 -0.411925D+00 -0.200752D-01
               26            27 
     26  0.462723D-01
     27  0.585946D-01  0.422337D+00
 Leave Link  716 at Wed Jan  6 11:42:27 2021, MaxMem=    33554432 cpu:         0.0
 (Enter /apps/applications/gaussian/G09.D01/2/default/g09/l9999.exe)
 1\1\GINC-DC1S0B3B\Freq\UB3LYP\3-21G\C3H5O1(2)\CHMRSH\06-Jan-2021\0\\#P
  b3lyp/3-21G scf=qc opt(calcall, ts, noeigentest, cartesian,maxcycle=1
 00)\\Gaussian input prepared by ASE\\0,2\C,-1.1232168584,4.8838721036,
 4.0416536681\C,-1.891669824,4.030776738,4.94130864\H,-1.7664344223,5.3
 69600094,3.2936610478\H,-0.3476714937,4.3165958182,3.5069267872\H,-0.6
 075939763,5.6897443669,4.5910684444\C,-2.5880734514,3.247993898,5.7110
 152844\H,-2.6636297222,3.3687724176,6.7906807041\O,-3.3710104402,2.115
 5058085,5.353580084\H,-3.3086708268,1.9959205237,4.3662160471\\Version
 =ES64L-G09RevD.01\State=2-A\HF=-191.3756463\S2=0.759156\S2-1=0.\S2A=0.
 750054\RMSD=0.000e+00\RMSF=1.654e-06\ZeroPoint=0.0700352\Thermal=0.074
 9846\Dipole=0.3854927,0.3853694,-0.6574225\DipoleDeriv=0.1565649,0.032
 1511,-0.0264258,0.0315606,0.1639417,-0.0361074,-0.0292274,-0.0398589,0
 .1271372,-0.312881,-0.0858486,-0.0614381,-0.070884,-0.371941,-0.084089
 9,0.0114327,0.0143272,-0.2640855,0.0011295,0.0261825,-0.0566135,0.0041
 794,0.0145291,0.0982145,-0.0289412,0.1240156,-0.04235,-0.0407269,0.019
 9934,0.1086159,0.0503106,0.0080475,-0.0221685,0.1214428,0.0067312,0.00
 60184,0.0312795,-0.1103886,-0.0178048,-0.1116892,-0.0482981,-0.0410108
 ,-0.0244013,-0.0498458,0.0263651,0.3916429,0.4998044,-0.0547292,0.5222
 16,0.7197913,-0.0000391,0.053379,0.1462936,0.372027,0.1014686,-0.05151
 26,0.0318616,-0.0532653,0.0715444,-0.0045877,0.0236072,-0.0157672,-0.0
 863179,-0.6741882,-0.3070511,0.0031959,-0.3403861,-0.8922561,0.0712373
 ,-0.1584023,-0.1473724,-0.1225475,0.3457108,-0.0233306,0.0733379,-0.03
 20419,0.3346413,0.0185515,0.0311106,-0.0385232,-0.0162468\Polar=28.456
 747,14.509643,34.9975392,-7.1362749,-6.0924292,33.858317\PG=C01 [X(C3H
 5O1)]\NImag=1\\0.49897686,-0.02932005,0.48335441,0.00865454,0.00429018
 ,0.48659168,-0.10657415,-0.05327354,0.07463105,0.33932869,-0.05448427,
 -0.11095497,0.08963296,0.29892275,0.40083080,0.06862246,0.08153996,-0.
 11036176,-0.31288034,-0.35743126,0.38821886,-0.13763203,0.06492543,-0.
 09798140,0.01262198,-0.01263051,0.01555280,0.15196719,0.06837815,-0.08
 988642,0.07108480,0.00448054,-0.01707917,0.01824507,-0.06894053,0.1038
 9862,-0.10262082,0.07088748,-0.15881059,-0.00248760,0.01588305,-0.0178
 8011,0.10981338,-0.08460657,0.17735570,-0.16593504,0.09737452,0.080732
 80,-0.01832334,-0.00120380,0.01346246,-0.01505599,0.01150144,0.0097734
 0,0.18721810,0.09329502,-0.11682632,-0.06095691,-0.02080308,0.01021349
 ,0.01252187,0.00896609,-0.00891435,-0.00768915,-0.10050374,0.13132868,
 0.08243337,-0.06475693,-0.10346233,0.01907126,-0.00182505,-0.01423517,
 -0.01689914,0.01249056,0.01236874,-0.09617888,0.06747637,0.11459592,-0
 .09249827,-0.07786574,-0.06130901,-0.01331248,-0.01582139,0.00248660,-
 0.01107342,-0.01553229,-0.01301142,0.01103978,0.01859226,0.01239112,0.
 10629683,-0.07643387,-0.16627467,-0.09564272,-0.01388080,-0.01876727,0
 .00540606,0.00750488,0.01072508,0.00684450,-0.00822542,-0.01511746,-0.
 01191833,0.09241340,0.19097118,-0.05423521,-0.08610812,-0.10848253,0.0
 1210942,0.01834822,0.00898345,-0.01097185,-0.01791131,-0.01348850,-0.0
 0830908,-0.01230002,-0.00977065,0.06062535,0.09709501,0.12297695,-0.00
 133465,0.00142235,-0.00285720,-0.19744216,-0.17736230,0.18662441,0.000
 30178,0.00191186,-0.00306531,0.00156596,0.00044540,-0.00109378,0.00079
 964,0.00026856,-0.00019190,0.32468041,0.00140780,-0.00189082,-0.004561
 46,-0.17695803,-0.23390615,0.20894103,0.00041676,0.00230274,-0.0021100
 0,0.00301123,0.00077120,-0.00304539,-0.00007700,0.00040168,-0.00033632
 ,0.24640300,0.42484255,-0.00301512,-0.00473832,-0.00623808,0.18861294,
 0.21162634,-0.24797118,0.00056041,0.00100019,0.00074507,0.00054465,0.0
 0093382,0.00100890,-0.00189522,-0.00263812,0.00020006,-0.17253987,-0.1
 1838994,0.67263337,0.00186582,-0.00078881,0.00075202,0.00001638,-0.006
 13538,0.01848751,-0.00030389,-0.00093631,0.00073436,0.00069372,0.00036
 386,-0.00020448,0.00016821,-0.00059157,0.00025187,-0.04188831,0.005261
 50,0.02648583,0.03661860,-0.00107300,0.00117998,0.00026776,-0.00814315
 ,0.00044023,0.01978618,0.00014739,0.00053115,-0.00014629,-0.00072405,-
 0.00033734,0.00053409,-0.00058940,-0.00011105,0.00020617,0.00347494,-0
 .04105526,-0.01946718,0.01948275,0.05171248,-0.00056697,-0.00150558,-0
 .00098879,0.00876160,0.00664404,-0.01784925,0.00012717,0.00009075,-0.0
 0031059,0.00036316,0.00023183,-0.00044573,0.00024495,0.00018980,-0.000
 03914,0.01782175,-0.03118254,-0.30944899,-0.02447469,0.03338950,0.3404
 4071,0.00415440,-0.00261340,-0.00257057,-0.01792435,-0.03387250,0.0068
 7178,-0.00100730,-0.00112898,0.00123382,-0.00090613,-0.00007482,0.0003
 6163,-0.00147445,-0.00119930,0.00079897,-0.08268988,-0.06872650,-0.009
 37844,0.00210795,-0.00790173,-0.00145699,0.11996938,-0.00191202,0.0021
 9296,-0.00436251,-0.03261784,-0.03400034,0.00937128,-0.00023563,-0.001
 32530,0.00091209,-0.00144938,-0.00125430,0.00137921,-0.00129924,-0.001
 98414,0.00111304,-0.07337535,-0.13779555,-0.02560157,-0.01185616,-0.00
 959549,-0.00627046,0.13020627,0.21596932,0.00077873,0.00014043,0.00135
 319,0.01293153,0.01756126,0.00849548,-0.00026360,-0.00058783,0.0000619
 3,-0.00047543,-0.00025552,-0.00010965,0.00037783,0.00054364,-0.0003132
 7,-0.03189330,-0.05603900,-0.09584112,-0.02060397,-0.03215955,-0.01309
 419,-0.01073054,0.08653002,0.51137294,-0.00102294,0.00013924,-0.000052
 24,0.00160943,0.00258740,0.00077232,0.00018168,0.00026612,-0.00036980,
 -0.00029704,-0.00028099,0.00011890,0.00005416,0.00014414,-0.00007756,-
 0.00399278,-0.01073875,-0.02937518,0.00072152,-0.00467375,-0.00081998,
 -0.02222963,-0.00746065,0.04987874,0.02497559,0.00014223,-0.00089415,0
 .00024791,0.00227316,0.00322337,0.00161981,-0.00015387,-0.00025235,0.0
 0002489,0.00021921,0.00013640,-0.00033453,0.00017940,0.00015665,-0.000
 10667,-0.00318845,-0.01367039,-0.04272523,-0.00479988,-0.00276471,-0.0
 0158733,-0.01468904,-0.03220717,-0.01573346,0.02001724,0.04627235,-0.0
 0005098,0.00025088,0.00039920,-0.00074986,-0.00043956,0.00259968,0.000
 06222,0.00019435,-0.00004163,0.00008693,0.00003771,0.00004997,0.000089
 81,0.00012015,-0.00006637,0.00719519,0.00672362,-0.01508802,-0.0014284
 5,-0.00241066,0.00173597,0.01487034,-0.06307110,-0.41192532,-0.0200752
 0,0.05859461,0.42233652\\-0.00000233,-0.00000224,-0.00000160,0.0000000
 4,-0.00000028,-0.00000059,-0.00000240,0.00000039,-0.00000245,0.0000014
 1,-0.00000282,-0.00000229,0.00000199,0.00000190,0.00000035,0.00000098,
 0.00000143,0.00000083,0.00000057,0.00000145,0.00000122,0.,0.00000074,0
 .00000412,-0.00000027,-0.00000058,0.00000041\\\@


 I LOVE MANKIND - IT'S PEOPLE I CAN'T STAND.
     -- LINUS OF PEANUTS
 Job cpu time:       0 days  0 hours  8 minutes 19.5 seconds.
 File lengths (MBytes):  RWF=      9 Int=      0 D2E=      0 Chk=      1 Scr=      1
 Normal termination of Gaussian 09 at Wed Jan  6 11:42:27 2021.
