24
Properties=species:S:1:pos:R:3 energy=-19714.56987692002 pbc="F F F"
O       -4.11747100      -0.76372600       0.68285800
C       -3.59323200       0.21904600       1.15165900
C       -2.83201200       1.30088500       0.43568300
C       -3.75779300       2.09639200      -0.39957600
C       -4.36223400       3.35430400       0.08764200
C       -5.82514900       3.20078100       0.52905600
H       -6.29998000       4.20231100       0.64319500
C       -6.65063600       2.32367500      -0.44316000
O       -7.03783400       2.81446200      -1.47538300
C       -6.90555400       0.92107700      -0.02026700
H       -6.30686400       3.42754400       3.38775700
H       -2.27825800       1.93802200       1.16875600
H       -2.04437400       0.82318200      -0.19499900
H       -4.00362400       1.73886300      -1.38734200
H       -4.04418400       2.08607200       3.10563400
H       -3.79194600       3.77661100       0.94633400
H       -4.30881300       4.12598000      -0.71615200
H       -7.71946600       0.45811300      -0.59903600
H       -6.01363700       0.28038300      -0.17112700
H       -7.15831500       0.83248300       1.04874400
O       -5.91498500       2.50598100       1.80528600
O       -5.49291300       3.44237700       2.79632700
O       -3.20017300       1.50377400       3.05978000
O       -3.75265200       0.30785400       2.55028100
