24
Properties=species:S:1:pos:R:3:momenta:R:3:forces:R:3 pbc="F F F"
O        4.04631245      -2.37117615       0.31987576       0.55632928       0.81348547       1.29909855      -0.06082074       0.01847252       0.02654481
C        3.16683576      -1.58611891       0.54434176      -0.40039852       1.18589290       0.27745436       0.04786663      -0.03307779      -0.02338456
C        2.53006575      -0.57771184      -0.37540350       0.52193515      -0.22826471      -1.71886390      -0.01048933       0.00325020      -0.02271124
C        1.05635145      -0.40050847      -0.09930171      -2.21765841      -1.02458134      -0.04182490       0.82332882      -0.09987055       0.37093169
C        0.50200317       0.97666557      -0.36416753      -0.11575231       0.26789691       1.11235463      -0.00073186      -0.01777323       0.00360295
C       -1.01016539       1.05836719      -0.12904156       0.51857901      -0.25382743      -1.72343764      -0.00099533       0.00775950       0.01288624
H       -1.34212824       2.11013878       0.04642099      -0.24599029       0.16486763      -0.18733775      -0.01060410       0.00564437       0.04045594
C       -1.82538663       0.48232563      -1.31186345      -1.02622311      -1.19806771       0.31776021       0.01858074      -0.02013744      -0.01771705
O       -1.38743978       0.56943149      -2.43541508       1.10239419       1.12132441       0.74790062       0.00856044      -0.04757940       0.02401660
C       -3.14903897      -0.11228413      -0.97576376       1.42453145      -1.42134771       1.11506645      -0.00573602      -0.00319896      -0.01845058
H       -1.73280079       1.01937575       2.70775605      -0.05859096      -0.37825376      -0.05299847       0.03267030      -0.00395560      -0.01765774
H        3.08155578       0.38587140      -0.26789248      -0.48691435      -0.00367173      -0.04804370       0.00407545       0.01060942      -0.01018228
H        2.69469245      -0.89470021      -1.43218811       0.29081727      -0.06815758       0.55623719       0.00633661      -0.01957361       0.03274603
H        0.42798633      -1.23132620      -0.45025202       0.25657203      -0.29688722       0.48483051      -0.04274078      -0.06437256      -0.02642468
H        0.86085913      -0.62015562       1.20074097       0.62118120       0.63427261       0.02938639      -0.79373661       0.40971067       2.03192401
H        1.02015613       1.73065185       0.26540016       0.19362396       0.34223438       0.13432943      -0.01394058      -0.02911524       0.00055032
H        0.70966822       1.26658374      -1.42491332      -0.55568389       0.20558736       0.27129718       0.00370942      -0.01041896       0.00959583
H       -3.41893855      -0.92082278      -1.67109173       0.23790985       0.05363180      -0.11934986      -0.00048050       0.04403501      -0.01751271
H       -3.18362337      -0.51392701       0.05253384      -0.02440511       0.20636072       0.05731745      -0.01788234       0.01914696      -0.00530059
H       -3.94884669       0.64141976      -1.04417048       0.28142296       0.16690974      -0.59328742       0.00051556      -0.00756104      -0.01861578
O       -1.27660762       0.26757897       1.05901039      -0.80719761      -2.67293950      -3.55704495       0.00027833       0.02776858       0.03138754
O       -2.21550679       1.01740348       1.82483752      -0.40624306       0.46322048       1.31645578      -0.01634926       0.03005098       0.01395244
O        1.80478568      -0.61565378       2.11221191       0.18871186      -0.25442817      -0.04794354      -0.01632584      -0.18906333      -2.39585505
O        2.58921053      -1.68142853       1.84833539      -0.07758386       0.19105095       2.37250987       0.04491098      -0.03075051      -0.02478214
