24
Properties=species:S:1:pos:R:3 energy=-19710.58566425597 pbc="F F F"
O       -3.65767093       0.07743304       2.59391356
C       -2.97292934       1.06004790       2.50904375
C       -2.12118932       1.57519996       1.38023104
C       -3.03607800       2.23563621       0.44009726
C       -3.31187876       3.65955183       0.27920770
C       -4.84062120       3.85773935       0.33794432
H       -5.10300488       4.90965595       0.09037855
C       -5.59098137       2.89536972      -0.61384094
O       -5.54151396       3.11413790      -1.80112080
C       -6.33128517       1.74798329      -0.02342492
H       -6.06614812       4.78740922       2.94268841
H       -1.37788007       2.30633899       1.77794241
H       -1.56276881       0.74273943       0.91184692
H       -3.40303500       1.58438660      -0.32997898
H       -3.70158058       3.06910527       2.62410370
H       -2.84427296       4.26811003       1.08217825
H       -2.93138227       4.07279465      -0.68322427
H       -7.28816510       1.59852358      -0.53401638
H       -5.81973563       0.79100058      -0.13865093
H       -6.52788576       1.86098811       1.04963885
O       -5.22648373       3.59265605       1.71484802
O       -5.27351069       4.89415667       2.36962711
O       -2.42051652       3.11041551       3.44834629
O       -3.16603184       1.99726116       3.57452809
