3
Properties=species:S:1:pos:R:3 energy=-2077.582358865745 pbc="F F F"
O        0.94545800       0.07580300       0.01537200
H        0.65874000       0.53575100       0.85169300
H        1.94089900       0.09885100       0.05728000
