 Entering Gaussian System, Link 0=g09
 Initial command:
 /apps/applications/gaussian/G09.D01/2/default/g09/l1.exe "/nobackup/chmrsh/Scratch/Gau-32553.inp" -scrdir="/nobackup/chmrsh/Scratch/"
 Entering Link 1 = /apps/applications/gaussian/G09.D01/2/default/g09/l1.exe PID=     32554.
  
 Copyright (c) 1988,1990,1992,1993,1995,1998,2003,2009,2013,
            Gaussian, Inc.  All Rights Reserved.
  
 This is part of the Gaussian(R) 09 program.  It is based on
 the Gaussian(R) 03 system (copyright 2003, Gaussian, Inc.),
 the Gaussian(R) 98 system (copyright 1998, Gaussian, Inc.),
 the Gaussian(R) 94 system (copyright 1995, Gaussian, Inc.),
 the Gaussian 92(TM) system (copyright 1992, Gaussian, Inc.),
 the Gaussian 90(TM) system (copyright 1990, Gaussian, Inc.),
 the Gaussian 88(TM) system (copyright 1988, Gaussian, Inc.),
 the Gaussian 86(TM) system (copyright 1986, Carnegie Mellon
 University), and the Gaussian 82(TM) system (copyright 1983,
 Carnegie Mellon University). Gaussian is a federally registered
 trademark of Gaussian, Inc.
  
 This software contains proprietary and confidential information,
 including trade secrets, belonging to Gaussian, Inc.
  
 This software is provided under written license and may be
 used, copied, transmitted, or stored only in accord with that
 written license.
  
 The following legend is applicable only to US Government
 contracts under FAR:
  
                    RESTRICTED RIGHTS LEGEND
  
 Use, reproduction and disclosure by the US Government is
 subject to restrictions as set forth in subparagraphs (a)
 and (c) of the Commercial Computer Software - Restricted
 Rights clause in FAR 52.227-19.
  
 Gaussian, Inc.
 340 Quinnipiac St., Bldg. 40, Wallingford CT 06492
  
  
 ---------------------------------------------------------------
 Warning -- This program may not be used in any manner that
 competes with the business of Gaussian, Inc. or will provide
 assistance to any competitor of Gaussian, Inc.  The licensee
 of this program is prohibited from giving any competitor of
 Gaussian, Inc. access to this program.  By using this program,
 the user acknowledges that Gaussian, Inc. is engaged in the
 business of creating and licensing software in the field of
 computational chemistry and represents and warrants to the
 licensee that it is not a competitor of Gaussian, Inc. and that
 it will not use this program in any manner prohibited above.
 ---------------------------------------------------------------
  

 Cite this work as:
 Gaussian 09, Revision D.01,
 M. J. Frisch, G. W. Trucks, H. B. Schlegel, G. E. Scuseria, 
 M. A. Robb, J. R. Cheeseman, G. Scalmani, V. Barone, B. Mennucci, 
 G. A. Petersson, H. Nakatsuji, M. Caricato, X. Li, H. P. Hratchian, 
 A. F. Izmaylov, J. Bloino, G. Zheng, J. L. Sonnenberg, M. Hada, 
 M. Ehara, K. Toyota, R. Fukuda, J. Hasegawa, M. Ishida, T. Nakajima, 
 Y. Honda, O. Kitao, H. Nakai, T. Vreven, J. A. Montgomery, Jr., 
 J. E. Peralta, F. Ogliaro, M. Bearpark, J. J. Heyd, E. Brothers, 
 K. N. Kudin, V. N. Staroverov, T. Keith, R. Kobayashi, J. Normand, 
 K. Raghavachari, A. Rendell, J. C. Burant, S. S. Iyengar, J. Tomasi, 
 M. Cossi, N. Rega, J. M. Millam, M. Klene, J. E. Knox, J. B. Cross, 
 V. Bakken, C. Adamo, J. Jaramillo, R. Gomperts, R. E. Stratmann, 
 O. Yazyev, A. J. Austin, R. Cammi, C. Pomelli, J. W. Ochterski, 
 R. L. Martin, K. Morokuma, V. G. Zakrzewski, G. A. Voth, 
 P. Salvador, J. J. Dannenberg, S. Dapprich, A. D. Daniels, 
 O. Farkas, J. B. Foresman, J. V. Ortiz, J. Cioslowski, 
 and D. J. Fox, Gaussian, Inc., Wallingford CT, 2013.
 
 ******************************************
 Gaussian 09:  ES64L-G09RevD.01 24-Apr-2013
                 5-Jan-2021 
 ******************************************
 ----------------------------------------------------------------------
 #P b3lyp/3-21G scf=qc opt(calcall, ts, noeigentest, cartesian,maxcycle
 =100) NoSymm
 ----------------------------------------------------------------------
 1/5=1,6=100,10=4,11=1,14=-1,18=10,26=3,38=1/1,3;
 2/12=2,15=1,17=6,18=5,29=2,40=1/2;
 3/5=5,11=2,16=1,25=1,30=1,71=2,74=-5,140=1/1,2,3;
 4//1;
 5/5=2,8=3,38=5/8;
 8/6=4,10=90,11=11/1;
 11/6=1,8=1,9=11,15=111,16=1,31=1/1,2,10;
 10/6=1,31=1/2;
 6/7=2,8=2,9=2,10=2,18=1,28=1/1;
 7/7=1,10=1,25=1,30=1/1,2,3,16;
 1/5=1,6=100,10=4,11=1,14=-1,18=10,26=3/3(3);
 2/15=1,29=1/2;
 7/7=1,8=1,9=1,25=1,30=1,44=-1/16;
 99/12=1/99;
 2/15=1,29=1/2;
 3/5=5,11=2,16=1,25=1,30=1,71=2,74=-5,140=1/1,2,3;
 4/5=5,16=3,69=1/1;
 5/5=2,8=3,38=5/8;
 8/6=4,10=90,11=11/1;
 11/6=1,8=1,9=11,15=111,16=1,31=1/1,2,10;
 10/6=1,31=1/2;
 7/7=1,10=1,25=1,30=1/1,2,3,16;
 1/5=1,6=100,10=4,11=1,14=-1,18=10,26=3/3(-8);
 2/15=1,29=1/2;
 6/7=2,8=2,9=2,10=2,18=1,19=2,28=1/1;
 7/7=1,8=1,9=1,25=1,30=1,44=-1/16;
 99/12=1/99;
 Leave Link    1 at Tue Jan  5 12:11:43 2021, MaxMem=           0 cpu:         0.1
 (Enter /apps/applications/gaussian/G09.D01/2/default/g09/l101.exe)
 ------------------------------
 Gaussian input prepared by ASE
 ------------------------------
 Symbolic Z-matrix:
 Charge =  0 Multiplicity = 2
 C                    -9.12892   0.68057   1.65359 
 C                    -7.75374   1.08238   1.77644 
 H                    -9.25211  -0.06181   0.84338 
 H                    -9.78512   1.5387    1.41789 
 H                    -9.50148   0.22112   2.58751 
 C                    -6.61223   1.42291   1.90664 
 H                    -5.32746   3.31317   3.27448 
 O                    -5.13617   3.05031   4.16763 
 H                    -5.26305   2.10879   4.21169 
 
 NAtoms=      9 NQM=        9 NQMF=       0 NMMI=      0 NMMIF=      0
                NMic=       0 NMicF=      0.
                    Isotopes and Nuclear Properties:
 (Nuclear quadrupole moments (NQMom) in fm**2, nuclear magnetic moments (NMagM)
  in nuclear magnetons)

  Atom         1           2           3           4           5           6           7           8           9
 IAtWgt=          12          12           1           1           1          12           1          16           1
 AtmWgt=  12.0000000  12.0000000   1.0078250   1.0078250   1.0078250  12.0000000   1.0078250  15.9949146   1.0078250
 NucSpn=           0           0           1           1           1           0           1           0           1
 AtZEff=   0.0000000   0.0000000   0.0000000   0.0000000   0.0000000   0.0000000   0.0000000   0.0000000   0.0000000
 NQMom=    0.0000000   0.0000000   0.0000000   0.0000000   0.0000000   0.0000000   0.0000000   0.0000000   0.0000000
 NMagM=    0.0000000   0.0000000   2.7928460   2.7928460   2.7928460   0.0000000   2.7928460   0.0000000   2.7928460
 AtZNuc=   6.0000000   6.0000000   1.0000000   1.0000000   1.0000000   6.0000000   1.0000000   8.0000000   1.0000000
 Leave Link  101 at Tue Jan  5 12:11:44 2021, MaxMem=    33554432 cpu:         0.1
 (Enter /apps/applications/gaussian/G09.D01/2/default/g09/l103.exe)

 GradGradGradGradGradGradGradGradGradGradGradGradGradGradGradGradGradGrad
 Berny optimization.
 Initialization pass.
 No Z-matrix variables, so optimization will use Cartesian coordinates.
 Trust Radius=3.00D-01 FncErr=1.00D-07 GrdErr=1.00D-06
 Number of steps in this run=    100 maximum allowed number of steps=    100.
 Search for a saddle point of order  1.
 GradGradGradGradGradGradGradGradGradGradGradGradGradGradGradGradGradGrad

 Leave Link  103 at Tue Jan  5 12:11:45 2021, MaxMem=    33554432 cpu:         0.0
 (Enter /apps/applications/gaussian/G09.D01/2/default/g09/l202.exe)
 ---------------------------------------------------------------------------------------------------
                            Z-MATRIX (ANGSTROMS AND DEGREES)
   CD    Cent   Atom    N1       Length/X        N2       Alpha/Y        N3        Beta/Z          J
 ---------------------------------------------------------------------------------------------------
      1      1  C        0  -9.128919          0.680572          1.653593
      2      2  C        0  -7.753741          1.082375          1.776443
      3      3  H        0  -9.252106         -0.061807          0.843377
      4      4  H        0  -9.785117          1.538701          1.417889
      5      5  H        0  -9.501482          0.221123          2.587511
      6      6  C        0  -6.612234          1.422914          1.906639
      7      7  H        0  -5.327458          3.313167          3.274481
      8      8  O        0  -5.136170          3.050307          4.167632
      9      9  H        0  -5.263050          2.108789          4.211693
 ---------------------------------------------------------------------------------------------------
                         Z-Matrix orientation:                         
 ---------------------------------------------------------------------
 Center     Atomic      Atomic             Coordinates (Angstroms)
 Number     Number       Type             X           Y           Z
 ---------------------------------------------------------------------
      1          6           0       -9.128919    0.680572    1.653593
      2          6           0       -7.753741    1.082375    1.776443
      3          1           0       -9.252106   -0.061807    0.843377
      4          1           0       -9.785117    1.538701    1.417889
      5          1           0       -9.501482    0.221123    2.587511
      6          6           0       -6.612234    1.422914    1.906639
      7          1           0       -5.327458    3.313167    3.274481
      8          8           0       -5.136170    3.050307    4.167632
      9          1           0       -5.263050    2.108789    4.211693
 ---------------------------------------------------------------------
                    Distance matrix (angstroms):
                    1          2          3          4          5
     1  C    0.000000
     2  C    1.437934   0.000000
     3  H    1.105782   2.103536   0.000000
     4  H    1.105684   2.112648   1.782075   0.000000
     5  H    1.105485   2.110494   1.784444   1.784510   0.000000
     6  C    2.636060   1.198314   3.209961   3.212394   3.202443
     7  H    4.899892   3.620414   5.718704   5.144549   5.239765
     8  O    5.279970   4.054900   6.138148   5.608810   5.436636
     9  H    4.850631   3.631461   5.654168   5.345973   4.915847
                    6          7          8          9
     6  C    0.000000
     7  H    2.663587   0.000000
     8  O    3.152659   0.950476   0.000000
     9  H    2.757534   1.527429   0.951050   0.000000
 Symmetry turned off by external request.
 Stoichiometry    C3H5O(2)
 Framework group  C1[X(C3H5O)]
 Deg. of freedom    21
 Full point group                 C1      NOp   1
 Rotational constants (GHZ):     28.9230263      1.9831357      1.8937673
 Leave Link  202 at Tue Jan  5 12:11:46 2021, MaxMem=    33554432 cpu:         0.0
 (Enter /apps/applications/gaussian/G09.D01/2/default/g09/l301.exe)
 Standard basis: 3-21G (6D, 7F)
 Ernie: Thresh=  0.10000D-02 Tol=  0.10000D-05 Strict=F.
    46 basis functions,    75 primitive gaussians,    46 cartesian basis functions
    16 alpha electrons       15 beta electrons
       nuclear repulsion energy        89.9641864671 Hartrees.
 IExCor=  402 DFT=T Ex+Corr=B3LYP ExCW=0 ScaHFX=  0.200000
 ScaDFX=  0.800000  0.720000  1.000000  0.810000 ScalE2=  1.000000  1.000000
 IRadAn=      0 IRanWt=     -1 IRanGd=            0 ICorTp=0 IEmpDi=  4
 NAtoms=    9 NActive=    9 NUniq=    9 SFac= 1.00D+00 NAtFMM=   60 NAOKFM=F Big=F
 Integral buffers will be    131072 words long.
 Raffenetti 2 integral format.
 Two-electron integral symmetry is turned off.
 Leave Link  301 at Tue Jan  5 12:11:48 2021, MaxMem=    33554432 cpu:         0.1
 (Enter /apps/applications/gaussian/G09.D01/2/default/g09/l302.exe)
 NPDir=0 NMtPBC=     1 NCelOv=     1 NCel=       1 NClECP=     1 NCelD=      1
         NCelK=      1 NCelE2=     1 NClLst=     1 CellRange=     0.0.
 One-electron integrals computed using PRISM.
 NBasis=    46 RedAO= T EigKep=  2.65D-03  NBF=    46
 NBsUse=    46 1.00D-06 EigRej= -1.00D+00 NBFU=    46
 Precomputing XC quadrature grid using
 IXCGrd= 4 IRadAn=           0 IRanWt=          -1 IRanGd=           0 AccXCQ= 0.00D+00.
 Generated NRdTot=       0 NPtTot=           0 NUsed=           0 NTot=          32
 NSgBfM=    45    45    45    45    45 MxSgAt=     9 MxSgA2=     9.
 Leave Link  302 at Tue Jan  5 12:12:30 2021, MaxMem=    33554432 cpu:         0.2
 (Enter /apps/applications/gaussian/G09.D01/2/default/g09/l303.exe)
 DipDrv:  MaxL=1.
 Leave Link  303 at Tue Jan  5 12:12:30 2021, MaxMem=    33554432 cpu:         0.0
 (Enter /apps/applications/gaussian/G09.D01/2/default/g09/l401.exe)
 ExpMin= 1.83D-01 ExpMax= 3.22D+02 ExpMxC= 3.22D+02 IAcc=1 IRadAn=         1 AccDes= 0.00D+00
 Harris functional with IExCor=  402 and IRadAn=       1 diagonalized for initial guess.
 HarFok:  IExCor=  402 AccDes= 0.00D+00 IRadAn=         1 IDoV= 1 UseB2=F ITyADJ=14
 ICtDFT=  3500011 ScaDFX=  1.000000  1.000000  1.000000  1.000000
 FoFCou: FMM=F IPFlag=           0 FMFlag=      100000 FMFlg1=           0
         NFxFlg=           0 DoJE=T BraDBF=F KetDBF=T FulRan=T
         wScrn=  0.000000 ICntrl=     500 IOpCl=  0 I1Cent=   200000004 NGrid=           0
         NMat0=    1 NMatS0=      1 NMatT0=    0 NMatD0=    1 NMtDS0=    0 NMtDT0=    0
 Symmetry not used in FoFCou.
 Harris En= -191.300294266692    
 JPrj=0 DoOrth=F DoCkMO=F.
 Initial guess <Sx>= 0.0000 <Sy>= 0.0000 <Sz>= 0.5000 <S**2>= 0.7500 S= 0.5000
 Leave Link  401 at Tue Jan  5 12:12:52 2021, MaxMem=    33554432 cpu:         0.2
 (Enter /apps/applications/gaussian/G09.D01/2/default/g09/l508.exe)
 Direct SCF.
 Tight linear equation convergence will be used.
 UB3LYP wavefunction.
 Quadratic Convergence SCF Method.
 Line search only if initial step raises energy.
 Two-electron integral symmetry not used.
 ReadGW:  IGet=1 IStart=         402 Next=         402 LGW=           0.
 Keep R1 and R2 ints in memory in canonical form, NReq=2054730.
 FoFCou: FMM=F IPFlag=           0 FMFlag=           0 FMFlg1=           0
         NFxFlg=           0 DoJE=F BraDBF=F KetDBF=F FulRan=T
         wScrn=  0.000000 ICntrl=     600 IOpCl=  0 I1Cent=           0 NGrid=           0
         NMat0=    1 NMatS0=   1081 NMatT0=    0 NMatD0=    1 NMtDS0=    0 NMtDT0=    0
 Symmetry not used in FoFCou.
 Iteration   1 EE= -191.132024039037                                    Grad=5.771D-01 Max rot=    7.2788 deg.
 Gradient too large for Newton-Raphson -- use scaled steepest descent instead.
 Alpha Gap=     0.479 HL deriv= 2.64D-02
  Beta Gap=     0.030 HL deriv= 4.83D-02
     ILin= 1 X=0.000D+00 Y=-1.911320240390D+02 DE= 0.00D+00 F= -6.90D-01
     ILin= 2 X=3.000D-01 Y=-1.912560940324D+02 DE=-1.24D-01 F= -1.35D-01
     ILin= 3 X=4.000D-01 Y=-1.912603210025D+02 DE=-1.28D-01 F=  5.08D-02
     Accept linear search using points  2 and  3.
     An  expanding polynomial of degree  3 produced  0.3417
 Iteration   2 EE= -191.260120459619     Delta-E=       -0.128096420583 Grad=1.574D-01 Max rot=    1.7273 deg.
 Gradient too large for Newton-Raphson -- use scaled steepest descent instead.
 Alpha Gap=     0.406 HL deriv= 9.41D-03
  Beta Gap=     0.113 HL deriv= 1.59D-02
     ILin= 1 X=0.000D+00 Y=-1.912601204596D+02 DE= 0.00D+00 F= -5.21D-02
     ILin= 2 X=3.000D-01 Y=-1.912702653857D+02 DE=-1.01D-02 F= -1.56D-02
     ILin= 3 X=5.000D-01 Y=-1.912709894198D+02 DE=-1.09D-02 F=  8.35D-03
     Accept linear search using points  2 and  3.
     An  expanding polynomial of degree  3 produced  0.3937
 Iteration   3 EE= -191.271201923756     Delta-E=       -0.011081464136 Grad=7.144D-02 Max rot=    0.8601 deg.
 Gradient too large for Newton-Raphson -- use scaled steepest descent instead.
 Alpha Gap=     0.440 HL deriv= 1.05D-02
  Beta Gap=     0.090 HL deriv= 1.05D-02
     ILin= 1 X=0.000D+00 Y=-1.912712019238D+02 DE= 0.00D+00 F= -9.35D-03
     ILin= 2 X=4.000D-01 Y=-1.912733826237D+02 DE=-2.18D-03 F= -1.56D-03
     ILin= 3 X=7.000D-01 Y=-1.912729764767D+02 DE=-1.77D-03 F=  4.27D-03
     An  expanding polynomial of degree  3 produced  0.4804
 Iteration   4 EE= -191.273445238636     Delta-E=       -0.002243314881 Grad=3.914D-02 Max rot=    0.6110 deg.
 Gradient too large for Newton-Raphson -- use scaled steepest descent instead.
 Alpha Gap=     0.424 HL deriv= 4.28D-03
  Beta Gap=     0.105 HL deriv= 5.55D-03
     ILin= 1 X=0.000D+00 Y=-1.912734452386D+02 DE= 0.00D+00 F= -3.31D-03
     ILin= 2 X=4.000D-01 Y=-1.912741215558D+02 DE=-6.76D-04 F= -6.98D-05
     ILin= 3 X=8.000D-01 Y=-1.912735038052D+02 DE=-5.86D-05 F=  3.15D-03
     An  expanding polynomial of degree  3 produced  0.4091
     Minimum is close to point  2 DX=  9.05D-03 DF= -3.31D-07 DXR=  2.21D-02 DFR=  4.90D-04 which will be used.
 Iteration   5 EE= -191.274121555837     Delta-E=       -0.000676317201 Grad=2.157D-02 Max rot=    0.3253 deg.
 Gradient too large for Newton-Raphson -- use scaled steepest descent instead.
 Alpha Gap=     0.435 HL deriv= 4.10D-03
  Beta Gap=     0.097 HL deriv= 3.16D-03
     ILin= 1 X=0.000D+00 Y=-1.912741215558D+02 DE= 0.00D+00 F= -9.86D-04
     ILin= 2 X=4.000D-01 Y=-1.912743732337D+02 DE=-2.52D-04 F= -2.72D-04
     ILin= 3 X=9.000D-01 Y=-1.912742853259D+02 DE=-1.64D-04 F=  6.24D-04
     An  expanding polynomial of degree  3 produced  0.5517
 Iteration   6 EE= -191.274393883021     Delta-E=       -0.000272327184 Grad=1.389D-02 Max rot=    0.3024 deg.
 Gradient too large for Newton-Raphson -- use scaled steepest descent instead.
 Alpha Gap=     0.429 HL deriv= 1.46D-03
  Beta Gap=     0.103 HL deriv= 2.83D-03
     ILin= 1 X=0.000D+00 Y=-1.912743938830D+02 DE= 0.00D+00 F= -5.81D-04
     ILin= 2 X=5.000D-01 Y=-1.912745099645D+02 DE=-1.16D-04 F=  1.17D-04
     Accept linear search using points  1 and  2.
     An  expanding polynomial of degree  2 produced  0.3013
 Iteration   7 EE= -191.274505606266     Delta-E=       -0.000111723245 Grad=7.518D-03 Max rot=    0.1143 deg.
 QCNR:  CnvC1=3.07D-09 CnvC2=3.07D-08
 LinEq1:  Iter=  0 NonCon=     1 RMS=5.19D-04 Max=8.29D-03 NDo=     1
 AX will form     1 AO Fock derivatives at one time.
 LinEq1:  Iter=  1 NonCon=     1 RMS=2.10D-04 Max=3.19D-03 NDo=     1
 LinEq1:  Iter=  2 NonCon=     1 RMS=2.47D-04 Max=3.75D-03 NDo=     1
 LinEq1:  Iter=  3 NonCon=     1 RMS=7.71D-05 Max=1.42D-03 NDo=     1
 LinEq1:  Iter=  4 NonCon=     1 RMS=6.44D-05 Max=1.06D-03 NDo=     1
 LinEq1:  Iter=  5 NonCon=     1 RMS=3.67D-05 Max=5.58D-04 NDo=     1
 LinEq1:  Iter=  6 NonCon=     1 RMS=1.19D-05 Max=1.19D-04 NDo=     1
 LinEq1:  Iter=  7 NonCon=     1 RMS=5.61D-06 Max=6.79D-05 NDo=     1
 LinEq1:  Iter=  8 NonCon=     1 RMS=2.82D-06 Max=5.25D-05 NDo=     1
 LinEq1:  Iter=  9 NonCon=     1 RMS=1.23D-06 Max=1.57D-05 NDo=     1
 LinEq1:  Iter= 10 NonCon=     1 RMS=4.61D-07 Max=3.85D-06 NDo=     1
 LinEq1:  Iter= 11 NonCon=     1 RMS=8.87D-08 Max=1.28D-06 NDo=     1
 LinEq1:  Iter= 12 NonCon=     1 RMS=2.84D-08 Max=6.45D-07 NDo=     1
 LinEq1:  Iter= 13 NonCon=     1 RMS=1.09D-08 Max=1.40D-07 NDo=     1
 LinEq1:  Iter= 14 NonCon=     0 RMS=2.72D-09 Max=2.08D-08 NDo=     1
 Linear equations converged to 3.074D-09 3.074D-08 after    14 iterations.
 Angle between quadratic step and gradient=  50.23 degrees.
     ILin= 1 X=0.000D+00 Y=-1.912745056063D+02 DE= 0.00D+00 F= -3.31D-04
     ILin= 2 X=1.000D+00 Y=-1.912746702530D+02 DE=-1.65D-04 F=  2.84D-06
     Accept linear search using points  1 and  2.
     An  expanding polynomial of degree  2 produced  0.9916
     Minimum is close to point  2 DX= -8.44D-03 DF= -1.20D-08 DXR=  8.51D-03 DFR=  7.28D-05 which will be used.
 Iteration   8 EE= -191.274670253044     Delta-E=       -0.000164646778 Grad=1.079D-04 Max rot=    0.0017 deg.
 QCNR:  CnvC1=1.08D-09 CnvC2=1.08D-08
 LinEq1:  Iter=  0 NonCon=     1 RMS=1.45D-05 Max=3.00D-04 NDo=     1
 LinEq1:  Iter=  1 NonCon=     1 RMS=1.22D-05 Max=1.66D-04 NDo=     1
 LinEq1:  Iter=  2 NonCon=     1 RMS=9.91D-06 Max=1.71D-04 NDo=     1
 LinEq1:  Iter=  3 NonCon=     1 RMS=7.81D-06 Max=1.18D-04 NDo=     1
 LinEq1:  Iter=  4 NonCon=     1 RMS=3.29D-06 Max=4.98D-05 NDo=     1
 LinEq1:  Iter=  5 NonCon=     1 RMS=1.21D-06 Max=9.16D-06 NDo=     1
 LinEq1:  Iter=  6 NonCon=     1 RMS=5.07D-07 Max=3.72D-06 NDo=     1
 LinEq1:  Iter=  7 NonCon=     1 RMS=1.84D-07 Max=1.91D-06 NDo=     1
 LinEq1:  Iter=  8 NonCon=     1 RMS=8.60D-08 Max=6.13D-07 NDo=     1
 LinEq1:  Iter=  9 NonCon=     1 RMS=3.42D-08 Max=4.52D-07 NDo=     1
 LinEq1:  Iter= 10 NonCon=     1 RMS=1.02D-08 Max=1.79D-07 NDo=     1
 LinEq1:  Iter= 11 NonCon=     1 RMS=3.47D-09 Max=6.33D-08 NDo=     1
 LinEq1:  Iter= 12 NonCon=     0 RMS=1.02D-09 Max=8.24D-09 NDo=     1
 Linear equations converged to 1.079D-09 1.079D-08 after    12 iterations.
 Angle between quadratic step and gradient=  71.58 degrees.
     ILin= 1 X=0.000D+00 Y=-1.912746702530D+02 DE= 0.00D+00 F= -9.98D-08
     ILin= 2 X=1.000D+00 Y=-1.912746703030D+02 DE=-5.00D-08 F= -2.13D-10
     Reject lnstep minimum 1.002D+00 FVal=-1.912746703030D+02 Lims=  0.00D+00  1.00D+00
     ILin= 3 X=2.000D+00 Y=-1.912746702536D+02 DE=-5.65D-10 F=  9.90D-08
     An  expanding polynomial of degree  3 produced  1.0028
     Minimum is close to point  2 DX=  2.84D-03 DF= -3.98D-13 DXR=  2.83D-03 DFR=  7.96D-06 which will be used.
 Iteration   9 EE= -191.274670303020     Delta-E=       -0.000000049976 Grad=6.219D-07 Max rot=    0.0000 deg.
 QCNR:  CnvC1=6.22D-12 CnvC2=6.22D-11
 LinEq1:  Iter=  0 NonCon=     1 RMS=5.11D-08 Max=9.33D-07 NDo=     1
 LinEq1:  Iter=  1 NonCon=     1 RMS=6.40D-08 Max=1.28D-06 NDo=     1
 LinEq1:  Iter=  2 NonCon=     1 RMS=2.54D-08 Max=4.98D-07 NDo=     1
 LinEq1:  Iter=  3 NonCon=     1 RMS=1.73D-08 Max=3.51D-07 NDo=     1
 LinEq1:  Iter=  4 NonCon=     1 RMS=1.19D-08 Max=1.87D-07 NDo=     1
 LinEq1:  Iter=  5 NonCon=     1 RMS=5.18D-09 Max=4.92D-08 NDo=     1
 LinEq1:  Iter=  6 NonCon=     1 RMS=2.05D-09 Max=1.68D-08 NDo=     1
 LinEq1:  Iter=  7 NonCon=     1 RMS=7.62D-10 Max=5.69D-09 NDo=     1
 LinEq1:  Iter=  8 NonCon=     1 RMS=3.99D-10 Max=3.50D-09 NDo=     1
 LinEq1:  Iter=  9 NonCon=     1 RMS=1.62D-10 Max=1.67D-09 NDo=     1
 LinEq1:  Iter= 10 NonCon=     1 RMS=5.05D-11 Max=9.51D-10 NDo=     1
 LinEq1:  Iter= 11 NonCon=     1 RMS=1.46D-11 Max=2.50D-10 NDo=     1
 LinEq1:  Iter= 12 NonCon=     0 RMS=4.84D-12 Max=4.70D-11 NDo=     1
 Linear equations converged to 6.219D-12 6.219D-11 after    12 iterations.
 Angle between quadratic step and gradient=  75.56 degrees.
     ILin= 1 X=0.000D+00 Y=-1.912746703030D+02 DE= 0.00D+00 F= -8.39D-13
     ILin= 2 X=1.000D+00 Y=-1.912746703030D+02 DE=-5.68D-14
 Iteration  10 EE= -191.274670303020     Delta-E=        0.000000000000 Grad=8.791D-10 Max rot=    0.0000 deg.
 Rotation gradient small -- convergence achieved.
 SCF Done:  E(UB3LYP) =  -191.274670303     a.u. after   10 cycles
            Convg  =    0.8791D-09                    59 Fock formations.
              S**2 =  0.7704                  -V/T =  2.0077
 <Sx>= 0.0000 <Sy>= 0.0000 <Sz>= 0.5000 <S**2>= 0.7704 S= 0.5101
 <L.S>= 0.000000000000E+00
 Annihilation of the first spin contaminant:
 S**2 before annihilation     0.7704,   after     0.7502
 Leave Link  508 at Tue Jan  5 12:13:40 2021, MaxMem=    33554432 cpu:        34.9
 (Enter /apps/applications/gaussian/G09.D01/2/default/g09/l801.exe)
 DoSCS=F DFT=T ScalE2(SS,OS)=  1.000000  1.000000
 Range of M.O.s used for correlation:     1    46
 NBasis=    46 NAE=    16 NBE=    15 NFC=     0 NFV=     0
 NROrb=     46 NOA=    16 NOB=    15 NVA=    30 NVB=    31

 **** Warning!!: The smallest beta delta epsilon is  0.71909263D-01

 Leave Link  801 at Tue Jan  5 12:13:42 2021, MaxMem=    33554432 cpu:         0.0
 (Enter /apps/applications/gaussian/G09.D01/2/default/g09/l1101.exe)
 Using compressed storage, NAtomX=     9.
 Will process     10 centers per pass.
 Leave Link 1101 at Tue Jan  5 12:13:42 2021, MaxMem=    33554432 cpu:         0.1
 (Enter /apps/applications/gaussian/G09.D01/2/default/g09/l1102.exe)
 Symmetrizing basis deriv contribution to polar:
 IMax=3 JMax=2 DiffMx= 0.00D+00
 Leave Link 1102 at Tue Jan  5 12:13:42 2021, MaxMem=    33554432 cpu:         0.0
 (Enter /apps/applications/gaussian/G09.D01/2/default/g09/l1110.exe)
 Forming Gx(P) for the SCF density, NAtomX=     9.
 Integral derivatives from FoFJK, PRISM(SPDF).
 Do as many integral derivatives as possible in FoFJK.
 G2DrvN: MDV=      33554256.
 G2DrvN: will do    10 centers at a time, making    1 passes.
 Calling FoFCou, ICntrl=  3107 FMM=F I1Cent=   0 AccDes= 0.00D+00.
 FoFJK:  IHMeth= 1 ICntrl=    3107 DoSepK=F KAlg= 0 I1Cent=   0 FoldK=F
 IRaf=         0 NMat=   1 IRICut=       1 DoRegI=T DoRafI=F ISym2E= 0.
 FoFCou: FMM=F IPFlag=           0 FMFlag=      100000 FMFlg1=           0
         NFxFlg=           0 DoJE=F BraDBF=F KetDBF=F FulRan=T
         wScrn=  0.000000 ICntrl=    3107 IOpCl=  1 I1Cent=           0 NGrid=           0
         NMat0=    1 NMatS0=      1 NMatT0=    0 NMatD0=    1 NMtDS0=    0 NMtDT0=    0
 Symmetry not used in FoFCou.
 End of G2Drv F.D. properties file   721 does not exist.
 End of G2Drv F.D. properties file   722 does not exist.
 End of G2Drv F.D. properties file   788 does not exist.
 Leave Link 1110 at Tue Jan  5 12:13:53 2021, MaxMem=    33554432 cpu:         8.6
 (Enter /apps/applications/gaussian/G09.D01/2/default/g09/l1002.exe)
 Minotr:  UHF open shell wavefunction.
          IDoAtm=111111111
          Direct CPHF calculation.
          Differentiating once with respect to electric field.
                with respect to dipole field.
          Differentiating once with respect to nuclear coordinates.
          Requested convergence is 1.0D-08 RMS, and 1.0D-07 maximum.
          Secondary convergence is 1.0D-12 RMS, and 1.0D-12 maximum.
          NewPWx=T KeepS1=F KeepF1=F KeepIn=T MapXYZ=F SortEE=F KeepMc=T.
          MDV=      33554246 using IRadAn=       2.
 Generate precomputed XC quadrature information.
 Keep R1 and R2 ints in memory in canonical form, NReq=2035827.
 FoFCou: FMM=F IPFlag=           0 FMFlag=           0 FMFlg1=           0
         NFxFlg=           0 DoJE=F BraDBF=F KetDBF=F FulRan=T
         wScrn=  0.000000 ICntrl=     600 IOpCl=  0 I1Cent=           0 NGrid=           0
         NMat0=    1 NMatS0=   1081 NMatT0=    0 NMatD0=    1 NMtDS0=    0 NMtDT0=    0
 Symmetry not used in FoFCou.
          Solving linear equations simultaneously, MaxMat=       0.
          There are    30 degrees of freedom in the 1st order CPHF.  IDoFFX=6 NUNeed=     3.
     27 vectors produced by pass  0 Test12= 3.15D-15 3.33D-09 XBig12= 1.04D+02 4.19D+00.
 AX will form    27 AO Fock derivatives at one time.
     27 vectors produced by pass  1 Test12= 3.15D-15 3.33D-09 XBig12= 4.04D+01 1.38D+00.
     27 vectors produced by pass  2 Test12= 3.15D-15 3.33D-09 XBig12= 2.30D-01 1.11D-01.
     27 vectors produced by pass  3 Test12= 3.15D-15 3.33D-09 XBig12= 1.06D-03 7.82D-03.
     27 vectors produced by pass  4 Test12= 3.15D-15 3.33D-09 XBig12= 5.20D-06 4.94D-04.
     24 vectors produced by pass  5 Test12= 3.15D-15 3.33D-09 XBig12= 1.43D-08 2.04D-05.
      7 vectors produced by pass  6 Test12= 3.15D-15 3.33D-09 XBig12= 2.60D-11 8.62D-07.
      3 vectors produced by pass  7 Test12= 3.15D-15 3.33D-09 XBig12= 6.18D-14 5.27D-08.
 InvSVY:  IOpt=1 It=  1 EMax= 9.77D-15
 Solved reduced A of dimension   169 with    30 vectors.
 FullF1:  Do perturbations    1 to     3.
 Isotropic polarizability for W=    0.000000       41.70 Bohr**3.
 End of Minotr F.D. properties file   721 does not exist.
 End of Minotr F.D. properties file   722 does not exist.
 End of Minotr F.D. properties file   788 does not exist.
 Leave Link 1002 at Tue Jan  5 12:14:04 2021, MaxMem=    33554432 cpu:         7.4
 (Enter /apps/applications/gaussian/G09.D01/2/default/g09/l601.exe)
 Copying SCF densities to generalized density rwf, IOpCl= 1 IROHF=0.

 **********************************************************************

            Population analysis using the SCF density.

 **********************************************************************

 Alpha  occ. eigenvalues --  -18.99602 -10.17500 -10.15851 -10.15081  -0.99215
 Alpha  occ. eigenvalues --   -0.80617  -0.73153  -0.51347  -0.49565  -0.44534
 Alpha  occ. eigenvalues --   -0.44480  -0.39236  -0.32597  -0.29928  -0.29672
 Alpha  occ. eigenvalues --   -0.25924
 Alpha virt. eigenvalues --    0.03633   0.03919   0.12441   0.12918   0.18330
 Alpha virt. eigenvalues --    0.18957   0.21149   0.24554   0.43953   0.62113
 Alpha virt. eigenvalues --    0.68443   0.68845   0.77510   0.77786   0.88797
 Alpha virt. eigenvalues --    0.88869   0.92959   0.96302   0.96659   1.01657
 Alpha virt. eigenvalues --    1.02150   1.07985   1.11981   1.34365   1.44152
 Alpha virt. eigenvalues --    1.52822   1.65753   1.74010   2.02435   2.78013
  Beta  occ. eigenvalues --  -18.99496 -10.15799 -10.15552 -10.15061  -0.98951
  Beta  occ. eigenvalues --   -0.80054  -0.71582  -0.51271  -0.49028  -0.44629
  Beta  occ. eigenvalues --   -0.44578  -0.32403  -0.28325  -0.28165  -0.25747
  Beta virt. eigenvalues --   -0.18556   0.05463   0.05770   0.12452   0.13434
  Beta virt. eigenvalues --    0.18432   0.19364   0.21404   0.24715   0.46873
  Beta virt. eigenvalues --    0.64167   0.68965   0.69256   0.78893   0.79159
  Beta virt. eigenvalues --    0.88911   0.89047   0.95197   0.96407   0.99648
  Beta virt. eigenvalues --    1.01898   1.02085   1.08556   1.13482   1.34983
  Beta virt. eigenvalues --    1.44259   1.53381   1.65902   1.75983   2.02463
  Beta virt. eigenvalues --    2.78206
          Condensed to atoms (all electrons):
               1          2          3          4          5          6
     1  C    5.380158   0.253391   0.366639   0.368098   0.368695  -0.067028
     2  C    0.253391   4.868509  -0.048010  -0.047432  -0.047930   0.894433
     3  H    0.366639  -0.048010   0.493580  -0.024673  -0.024275  -0.001365
     4  H    0.368098  -0.047432  -0.024673   0.492078  -0.024199  -0.001743
     5  H    0.368695  -0.047930  -0.024275  -0.024199   0.492058  -0.001927
     6  C   -0.067028   0.894433  -0.001365  -0.001743  -0.001927   5.358660
     7  H    0.000011   0.000870   0.000000  -0.000001   0.000000   0.009552
     8  O    0.000001   0.000103   0.000000   0.000000   0.000000   0.002530
     9  H    0.000012   0.000870   0.000000   0.000000  -0.000002   0.007772
               7          8          9
     1  C    0.000011   0.000001   0.000012
     2  C    0.000870   0.000103   0.000870
     3  H    0.000000   0.000000   0.000000
     4  H   -0.000001   0.000000   0.000000
     5  H    0.000000   0.000000  -0.000002
     6  C    0.009552   0.002530   0.007772
     7  H    0.435081   0.256696  -0.046637
     8  O    0.256696   8.139238   0.256796
     9  H   -0.046637   0.256796   0.438145
          Atomic-Atomic Spin Densities.
               1          2          3          4          5          6
     1  C    0.041101   0.007798  -0.003468  -0.003568  -0.003540  -0.003540
     2  C    0.007798  -0.188956   0.003730   0.003966   0.004038  -0.027128
     3  H   -0.003468   0.003730  -0.008010   0.001224   0.001095  -0.000177
     4  H   -0.003568   0.003966   0.001224  -0.010675   0.001066   0.000047
     5  H   -0.003540   0.004038   0.001095   0.001066  -0.010993   0.000119
     6  C   -0.003540  -0.027128  -0.000177   0.000047   0.000119   1.180720
     7  H    0.000000  -0.000034   0.000000   0.000000   0.000000  -0.000097
     8  O   -0.000001   0.000079   0.000000   0.000000   0.000000  -0.003086
     9  H    0.000000  -0.000027   0.000000   0.000000   0.000000  -0.000308
               7          8          9
     1  C    0.000000  -0.000001   0.000000
     2  C   -0.000034   0.000079  -0.000027
     3  H    0.000000   0.000000   0.000000
     4  H    0.000000   0.000000   0.000000
     5  H    0.000000   0.000000   0.000000
     6  C   -0.000097  -0.003086  -0.000308
     7  H   -0.007761   0.004447  -0.001338
     8  O    0.004447   0.040686   0.003546
     9  H   -0.001338   0.003546  -0.005797
 Mulliken charges and spin densities:
               1          2
     1  C   -0.669977   0.034782
     2  C    0.125198  -0.196534
     3  H    0.238104  -0.005607
     4  H    0.237872  -0.007939
     5  H    0.237581  -0.008215
     6  C   -0.200886   1.146549
     7  H    0.344427  -0.004784
     8  O   -0.655364   0.045671
     9  H    0.343044  -0.003925
 Sum of Mulliken charges =   0.00000   1.00000
 Mulliken charges and spin densities with hydrogens summed into heavy atoms:
               1          2
     1  C    0.043580   0.013022
     2  C    0.125198  -0.196534
     6  C   -0.200886   1.146549
     8  O    0.032108   0.036962
 APT charges:
               1
     1  C   -0.191235
     2  C    0.477335
     3  H    0.008762
     4  H    0.034072
     5  H    0.040814
     6  C   -0.283724
     7  H    0.271787
     8  O   -0.644689
     9  H    0.286880
 Sum of APT charges =   0.00000
 APT charges with hydrogens summed into heavy atoms:
               1
     1  C   -0.107588
     2  C    0.477335
     6  C   -0.283724
     8  O   -0.086023
 Electronic spatial extent (au):  <R**2>=           7222.8169
 Charge=              0.0000 electrons
 Dipole moment (field-independent basis, Debye):
    X=             -2.0922    Y=             -1.6903    Z=             -1.6783  Tot=              3.1703
 Quadrupole moment (field-independent basis, Debye-Ang):
   XX=              7.6961   YY=            -31.3408   ZZ=            -36.6279
   XY=              7.6460   XZ=              4.6935   YZ=            -11.3006
 Traceless Quadrupole moment (field-independent basis, Debye-Ang):
   XX=             27.7870   YY=            -11.2499   ZZ=            -16.5370
   XY=              7.6460   XZ=              4.6935   YZ=            -11.3006
 Octapole moment (field-independent basis, Debye-Ang**2):
  XXX=            147.5129  YYY=           -134.6633  ZZZ=           -240.8207  XYY=            210.3849
  XXY=            -67.9587  XXZ=            -46.3215  XZZ=            230.5613  YZZ=           -101.7892
  YYZ=           -102.8535  XYZ=             54.4485
 Hexadecapole moment (field-independent basis, Debye-Ang**3):
 XXXX=          -3911.2906 YYYY=           -561.5431 ZZZZ=          -1342.8209 XXXY=            775.4739
 XXXZ=            749.4287 YYYX=            822.6746 YYYZ=           -484.8612 ZZZX=           1477.1315
 ZZZY=           -660.4602 XXYY=          -1589.9070 XXZZ=          -1720.0547 YYZZ=           -498.3486
 XXYZ=           -372.7974 YYXZ=            609.0029 ZZXY=            559.1794
 N-N= 8.996418646713D+01 E-N=-6.263511895461D+02  KE= 1.898193313745D+02
  Exact polarizability:  46.647  14.468  37.358  16.341  11.222  41.107
 Approx polarizability:  67.889  18.864  36.533  14.475   8.662  37.928
                          Isotropic Fermi Contact Couplings
        Atom                 a.u.       MegaHertz       Gauss      10(-4) cm-1
     1  C(13)              0.01267      14.24818       5.08410       4.75268
     2  C(13)              0.10966     123.28294      43.99042      41.12276
     3  H(1)              -0.00259     -11.57576      -4.13052      -3.86126
     4  H(1)              -0.00345     -15.41436      -5.50023      -5.14168
     5  H(1)              -0.00351     -15.70967      -5.60560      -5.24018
     6  C(13)              0.73842     830.12748     296.21012     276.90072
     7  H(1)              -0.00003      -0.11683      -0.04169      -0.03897
     8  O(17)             -0.01261       7.64662       2.72850       2.55064
     9  H(1)              -0.00004      -0.18459      -0.06587      -0.06157
 --------------------------------------------------------
       Center         ----  Spin Dipole Couplings  ----
                      3XX-RR        3YY-RR        3ZZ-RR
 --------------------------------------------------------
     1   Atom        0.023793     -0.010350     -0.013443
     2   Atom        0.248880     -0.110891     -0.137989
     3   Atom        0.002299     -0.001045     -0.001255
     4   Atom        0.004736     -0.001339     -0.003398
     5   Atom        0.003481     -0.002222     -0.001259
     6   Atom        0.537183     -0.242059     -0.295124
     7   Atom       -0.012949      0.003682      0.009267
     8   Atom       -0.022812     -0.021002      0.043813
     9   Atom       -0.011659      0.004013      0.007646
 --------------------------------------------------------
                        XY            XZ            YZ
 --------------------------------------------------------
     1   Atom        0.013357      0.007405      0.002411
     2   Atom        0.138501      0.077618      0.029840
     3   Atom        0.002332      0.001322      0.002415
     4   Atom       -0.000673      0.001520     -0.000368
     5   Atom        0.003082     -0.001488     -0.001337
     6   Atom        0.204356      0.011481      0.000840
     7   Atom        0.008265      0.008622      0.005554
     8   Atom        0.068546      0.098736      0.089716
     9   Atom        0.002944      0.009706      0.002492
 --------------------------------------------------------


 ---------------------------------------------------------------------------------
              Anisotropic Spin Dipole Couplings in Principal Axis System
 ---------------------------------------------------------------------------------

       Atom             a.u.   MegaHertz   Gauss  10(-4) cm-1        Axes

              Baa    -0.0150    -2.019    -0.720    -0.673 -0.3636  0.7539  0.5472
     1 C(13)  Bbb    -0.0148    -1.980    -0.707    -0.661  0.0416 -0.5737  0.8180
              Bcc     0.0298     3.999     1.427     1.334  0.9306  0.3202  0.1772
 
              Baa    -0.1596   -21.423    -7.644    -7.146 -0.2108  0.8708 -0.4442
     2 C(13)  Bbb    -0.1517   -20.362    -7.266    -6.792 -0.2996  0.3750  0.8773
              Bcc     0.3114    41.785    14.910    13.938  0.9305  0.3180  0.1818
 
              Baa    -0.0037    -1.954    -0.697    -0.652 -0.1414  0.7366 -0.6614
     3 H(1)   Bbb    -0.0008    -0.429    -0.153    -0.143 -0.6166  0.4571  0.6409
              Bcc     0.0045     2.382     0.850     0.795  0.7744  0.4985  0.3895
 
              Baa    -0.0037    -1.973    -0.704    -0.658 -0.1682  0.1050  0.9801
     4 H(1)   Bbb    -0.0014    -0.745    -0.266    -0.248  0.1293  0.9881 -0.0837
              Bcc     0.0051     2.718     0.970     0.907  0.9772 -0.1126  0.1798
 
              Baa    -0.0038    -2.006    -0.716    -0.669 -0.3241  0.9009  0.2888
     5 H(1)   Bbb    -0.0016    -0.862    -0.308    -0.288  0.3657 -0.1623  0.9165
              Bcc     0.0054     2.868     1.023     0.957  0.8725  0.4026 -0.2768
 
              Baa    -0.2962   -39.753   -14.185   -13.260 -0.1186  0.4333  0.8934
     6 C(13)  Bbb    -0.2914   -39.107   -13.954   -13.045 -0.2081  0.8689 -0.4491
              Bcc     0.5877    78.860    28.139    26.305  0.9709  0.2391  0.0129
 
              Baa    -0.0178    -9.483    -3.384    -3.163  0.9260 -0.2960 -0.2344
     7 H(1)   Bbb     0.0005     0.274     0.098     0.091  0.1008  0.7921 -0.6019
              Bcc     0.0173     9.209     3.286     3.072  0.3639  0.5337  0.7634
 
              Baa    -0.0946     6.844     2.442     2.283  0.8576 -0.2525 -0.4481
     8 O(17)  Bbb    -0.0840     6.075     2.168     2.026 -0.0430  0.8330 -0.5516
              Bcc     0.1785   -12.919    -4.610    -4.309  0.5126  0.4924  0.7035
 
              Baa    -0.0159    -8.460    -3.019    -2.822  0.9238 -0.0902 -0.3720
     9 H(1)   Bbb     0.0028     1.519     0.542     0.507 -0.0571  0.9285 -0.3669
              Bcc     0.0130     6.940     2.476     2.315  0.3785  0.3602  0.8527
 

 ---------------------------------------------------------------------------------

 No NMR shielding tensors so no spin-rotation constants.
 Leave Link  601 at Tue Jan  5 12:14:04 2021, MaxMem=    33554432 cpu:         0.1
 (Enter /apps/applications/gaussian/G09.D01/2/default/g09/l701.exe)
 Compute integral second derivatives.
 ... and contract with generalized density number  0.
 Leave Link  701 at Tue Jan  5 12:14:04 2021, MaxMem=    33554432 cpu:         0.1
 (Enter /apps/applications/gaussian/G09.D01/2/default/g09/l702.exe)
 L702 exits ... SP integral derivatives will be done elsewhere.
 Leave Link  702 at Tue Jan  5 12:14:04 2021, MaxMem=    33554432 cpu:         0.0
 (Enter /apps/applications/gaussian/G09.D01/2/default/g09/l703.exe)
 Compute integral second derivatives, UseDBF=F ICtDFT=           0.
 Integral derivatives from FoFJK, PRISM(SPDF).
 Calling FoFJK, ICntrl=    100127 FMM=F ISym2X=0 I1Cent= 0 IOpClX= 1 NMat=1 NMatS=1 NMatT=0.
 FoFJK:  IHMeth= 1 ICntrl=  100127 DoSepK=F KAlg= 0 I1Cent=   0 FoldK=F
 IRaf=         0 NMat=   1 IRICut=       1 DoRegI=T DoRafI=F ISym2E= 0.
 FoFCou: FMM=F IPFlag=           0 FMFlag=      100000 FMFlg1=         800
         NFxFlg=           0 DoJE=F BraDBF=F KetDBF=F FulRan=T
         wScrn=  0.000000 ICntrl=  100127 IOpCl=  1 I1Cent=           0 NGrid=           0
         NMat0=    1 NMatS0=      1 NMatT0=    0 NMatD0=    1 NMtDS0=    0 NMtDT0=    0
 Symmetry not used in FoFCou.
 Leave Link  703 at Tue Jan  5 12:14:12 2021, MaxMem=    33554432 cpu:         7.5
 (Enter /apps/applications/gaussian/G09.D01/2/default/g09/l716.exe)
 Dipole        =-8.23132436D-01-6.65011187D-01-6.60286425D-01
 Polarizability= 4.66467503D+01 1.44675916D+01 3.73580973D+01
                 1.63408635D+01 1.12223467D+01 4.11066696D+01
 -------------------------------------------------------------------
 Center     Atomic                   Forces (Hartrees/Bohr)
 Number     Number              X              Y              Z
 -------------------------------------------------------------------
      1        6          -0.022245783   -0.006406225   -0.002010873
      2        6          -0.013374621   -0.004935074   -0.003460413
      3        1           0.001059637    0.003355302    0.003905156
      4        1           0.004083727   -0.003570644    0.001448465
      5        1           0.002353504    0.002357603   -0.004276065
      6        6           0.030637125    0.011830843    0.008199649
      7        1          -0.009223801    0.010838563   -0.038871018
      8        8           0.012985110    0.026535962    0.033866792
      9        1          -0.006274898   -0.040006330    0.001198308
 -------------------------------------------------------------------
 Cartesian Forces:  Max     0.040006330 RMS     0.016514974
 Force constants in Cartesian coordinates: 
                1             2             3             4             5 
      1  0.531738D+00
      2  0.834938D-02  0.496325D+00
      3  0.127927D-02 -0.455524D-02  0.497218D+00
      4 -0.284602D+00 -0.585343D-01 -0.167331D-02  0.138466D+01
      5 -0.694668D-01 -0.574304D-01  0.388542D-02  0.382087D+00  0.146000D+00
      6 -0.194186D-01 -0.419257D-03 -0.425337D-01  0.112133D+00  0.292215D-01
      7 -0.497309D-01 -0.172841D-01 -0.187616D-01 -0.907730D-02 -0.234065D-01
      8 -0.142774D-01 -0.155488D+00 -0.117647D+00 -0.719609D-02 -0.752933D-02
      9 -0.158605D-01 -0.117041D+00 -0.177004D+00 -0.529719D-02 -0.213017D-02
     10 -0.128432D+00  0.111095D+00 -0.294471D-01 -0.324524D-01  0.202523D-01
     11  0.107795D+00 -0.195571D+00  0.401208D-01 -0.723762D-02  0.101497D-01
     12 -0.294901D-01  0.408811D-01 -0.587022D-01 -0.257806D-02 -0.119320D-03
     13 -0.725064D-01 -0.322248D-01  0.671177D-01 -0.256842D-01 -0.172835D-01
     14 -0.313980D-01 -0.885926D-01  0.854108D-01 -0.826961D-02 -0.672834D-02
     15  0.646306D-01  0.842585D-01 -0.221851D+00  0.574965D-03 -0.272891D-02
     16  0.339644D-02 -0.112907D-01 -0.179011D-01 -0.103238D+01 -0.291981D+00
     17 -0.136118D-02  0.158108D-02 -0.602587D-02 -0.301389D+00 -0.855865D-01
     18 -0.168122D-02 -0.190939D-02  0.470779D-02 -0.104211D+00 -0.295040D-01
     19 -0.374238D-03  0.163800D-02  0.131236D-02 -0.164454D-02 -0.258229D-02
     20 -0.563153D-03  0.202826D-02  0.304165D-02 -0.248831D-02 -0.329816D-02
     21  0.195205D-03 -0.674818D-03 -0.166065D-02  0.728946D-03  0.865198D-03
     22  0.757563D-03 -0.279368D-02 -0.339391D-02  0.299669D-02  0.394150D-02
     23  0.489511D-03 -0.130312D-02 -0.228182D-02  0.204345D-02  0.204938D-02
     24  0.627836D-03 -0.154040D-02 -0.275774D-02  0.279197D-02  0.229220D-02
     25 -0.247079D-03  0.104539D-02  0.146774D-02 -0.182241D-02 -0.156109D-02
     26  0.432625D-03 -0.154914D-02 -0.194871D-02  0.983606D-03  0.237371D-02
     27 -0.282443D-03  0.100091D-02  0.258362D-02 -0.246887D-02 -0.178187D-02
                6             7             8             9            10 
      6  0.482199D-01
      7 -0.247040D-01  0.614417D-01
      8 -0.650060D-02  0.203525D-01  0.171286D+00
      9 -0.132138D-02  0.200968D-01  0.133093D+00  0.194693D+00
     10 -0.787124D-02  0.227171D-02 -0.215621D-02  0.143944D-02  0.149558D+00
     11 -0.317645D-02  0.131483D-01 -0.190337D-01  0.557200D-02 -0.120051D+00
     12 -0.216636D-02  0.158329D-01 -0.205442D-01  0.524795D-02  0.339336D-01
     13  0.267275D-01  0.890603D-03  0.219092D-02 -0.235873D-02  0.728951D-02
     14  0.510439D-02  0.859015D-02  0.993057D-02 -0.203152D-01 -0.886973D-02
     15  0.570139D-02  0.760374D-02  0.110339D-01 -0.221863D-01  0.161725D-02
     16 -0.874457D-01 -0.568138D-02  0.106889D-02  0.198553D-02  0.178815D-02
     17 -0.252912D-01 -0.978914D-03  0.848995D-03  0.816171D-03 -0.331347D-03
     18 -0.980427D-02  0.572063D-03  0.604205D-03  0.535172D-03  0.269142D-03
     19 -0.148571D-02  0.611578D-03  0.116370D-03 -0.810325D-04 -0.218337D-03
     20 -0.448954D-02  0.109326D-02  0.297847D-04 -0.959238D-04  0.308373D-04
     21  0.252049D-02 -0.490726D-03  0.176896D-05 -0.199465D-04 -0.302802D-04
     22  0.406491D-02 -0.130565D-02 -0.123846D-03  0.522505D-04  0.228196D-03
     23  0.285399D-02 -0.817304D-03  0.293241D-05  0.399512D-04 -0.915892D-04
     24  0.333525D-02 -0.984608D-03 -0.757505D-05  0.737149D-04 -0.577457D-04
     25 -0.199988D-02  0.579643D-03  0.248250D-04  0.234343D-04 -0.329203D-04
     26  0.269718D-02 -0.697444D-03 -0.472845D-04  0.621186D-04  0.122190D-03
     27 -0.395136D-02  0.835446D-03 -0.329611D-04 -0.178534D-04  0.146908D-03
               11            12            13            14            15 
     11  0.216750D+00
     12 -0.447466D-01  0.615560D-01
     13  0.775250D-02 -0.176346D-01  0.872429D-01
     14 -0.118742D-01  0.239459D-01  0.386961D-01  0.960293D-01
     15  0.217764D-02 -0.663776D-02 -0.732055D-01 -0.947281D-01  0.245010D+00
     16 -0.139143D-02 -0.450051D-04  0.269332D-02  0.121866D-02 -0.125038D-02
     17 -0.474159D-03  0.576394D-03  0.785064D-03  0.116233D-02 -0.865362D-04
     18 -0.328578D-04  0.680560D-03 -0.826825D-03  0.475847D-03 -0.145975D-03
     19 -0.169865D-03 -0.116064D-03 -0.376769D-04 -0.629347D-04 -0.598139D-04
     20 -0.840939D-04  0.501059D-04 -0.227353D-03 -0.907372D-04 -0.153607D-03
     21  0.136963D-04 -0.250140D-04  0.222232D-03  0.119565D-03  0.104752D-03
     22  0.215084D-03  0.109184D-03  0.287596D-03  0.246362D-03  0.198095D-03
     23  0.278405D-04 -0.694385D-04  0.195118D-03  0.871210D-04  0.124554D-03
     24  0.510209D-04 -0.583919D-04  0.150349D-03  0.679518D-04  0.141174D-03
     25 -0.608148D-04 -0.118734D-04 -0.175635D-03 -0.150952D-03 -0.108914D-03
     26  0.110374D-03  0.260061D-04  0.116014D-03  0.765065D-04  0.102599D-03
     27  0.207610D-04  0.105193D-03 -0.192008D-03 -0.811307D-04 -0.136964D-03
               16            17            18            19            20 
     16  0.103014D+01
     17  0.302385D+00  0.826458D-01
     18  0.104883D+00  0.284767D-01  0.226333D-02
     19  0.216117D-02  0.908501D-03 -0.414027D-03  0.111357D-03
     20  0.191608D-02  0.300093D-03  0.142696D-03 -0.281568D-01  0.874100D-01
     21 -0.709845D-03  0.242863D-03 -0.768214D-03  0.112913D+00 -0.169789D+00
     22 -0.407832D-02 -0.863739D-04  0.137195D-02  0.297413D-03  0.165183D-01
     23 -0.728798D-03  0.566783D-03  0.208691D-02  0.354125D-01 -0.658141D-01
     24 -0.126951D-02  0.118405D-02  0.240899D-02 -0.118196D+00  0.113247D+00
     25  0.195939D-02  0.682239D-04  0.375163D-04 -0.906727D-03  0.118771D-01
     26 -0.119634D-02 -0.104436D-02 -0.340120D-03 -0.710354D-02 -0.204810D-01
     27  0.175336D-02  0.107383D-03  0.122618D-03  0.612816D-02  0.580462D-01
               21            22            23            24            25 
     21  0.510688D+00
     22 -0.108117D+00 -0.110465D-01
     23  0.187718D+00  0.497431D-01  0.621362D+00
     24 -0.500541D+00  0.117414D+00 -0.186455D+00  0.517966D+00
     25 -0.471088D-02  0.118630D-01 -0.862460D-01 -0.476418D-03 -0.112173D-01
     26 -0.184980D-01 -0.676604D-01 -0.556979D+00  0.711611D-01  0.750033D-01
     27 -0.102983D-01 -0.116998D-01 -0.401713D-02 -0.205673D-01  0.577927D-02
               26            27 
     26  0.577540D+00
     27 -0.532621D-01  0.321603D-01
 Leave Link  716 at Tue Jan  5 12:14:12 2021, MaxMem=    33554432 cpu:         0.0
 (Enter /apps/applications/gaussian/G09.D01/2/default/g09/l103.exe)

 GradGradGradGradGradGradGradGradGradGradGradGradGradGradGradGradGradGrad
 Berny optimization.
 Search for a saddle point.
 Step number   1 out of a maximum of  100
 All quantities printed in internal units (Hartrees-Bohrs-Radians)
 Swapping is turned off.
 Second derivative matrix not updated -- analytic derivatives used.
 ITU=  0
     Eigenvalues ---   -0.05948  -0.02684  -0.02025  -0.01000  -0.00104
     Eigenvalues ---   -0.00061   0.00234   0.00275   0.09638   0.09735
     Eigenvalues ---    0.11100   0.11695   0.12225   0.14202   0.28335
     Eigenvalues ---    0.66288   0.67471   0.68851   0.87742   1.11935
     Eigenvalues ---    2.48528
 Eigenvectors required to have negative eigenvalues:
                          X7        X9        X8        Z9        Z7
   1                    0.55417   0.53499  -0.50441  -0.19883  -0.19647
                          Y9        Y7        Z6        Z4        X6
   1                   -0.13975  -0.10752  -0.07827   0.07078   0.06289
 Eigenvalue     2 is  -2.68D-02 should be greater than     0.000000 Eigenvector:
                          Y7        Z9        X9        X7        Z7
   1                    0.55919  -0.54880  -0.42775   0.37007   0.18337
                          Y8        Z8        Y6        Y9        Z3
   1                   -0.09040   0.07669  -0.07023  -0.05356   0.05125
 Eigenvalue     3 is  -2.03D-02 should be greater than     0.000000 Eigenvector:
                          X7        X9        Z9        Y7        Z7
   1                    0.56417  -0.54269   0.36362  -0.30231  -0.22016
                          Y6        Y5        Z4        Z6        Y9
   1                    0.21003  -0.13969   0.11565  -0.10109   0.09169
 Eigenvalue     4 is  -1.00D-02 should be greater than     0.000000 Eigenvector:
                          Z6        Y6        Z8        Z9        Z7
   1                    0.76331   0.37411  -0.22248  -0.21077  -0.20939
                          X6        Y8        Z1        Y9        Z2
   1                   -0.17732  -0.11707  -0.11398  -0.11321  -0.10195
 Eigenvalue     5 is  -1.04D-03 should be greater than     0.000000 Eigenvector:
                          X9        X7        X8        X3        Z2
   1                    0.34431   0.34202   0.33643  -0.28319  -0.27882
                          Z8        Z7        Y2        X6        Z9
   1                    0.23785   0.23062  -0.22249  -0.21436   0.20604
 Eigenvalue     6 is  -6.09D-04 should be greater than     0.000000 Eigenvector:
                          Y6        Y2        Z4        Y5        X4
   1                    0.51867  -0.32761  -0.30355   0.30327   0.29038
                          Z6        X5        Z3        Y3        Z2
   1                   -0.28706  -0.25220   0.22984  -0.22704   0.16444
 RFO step:  Lambda0=3.514732523D-05 Lambda=-2.68428023D-02.
 Linear search not attempted -- option 19 set.
 Maximum step size (   0.300) exceeded in Quadratic search.
    -- Step size scaled by   0.314
 TrRot=  0.008619 -0.018010  0.042514 -1.058087 -0.004393  1.057642
 Variable       Old X    -DE/DX   Delta X   Delta X   Delta X     New X
                                 (Linear)    (Quad)   (Total)
    X1      -17.25116  -0.02225   0.00000  -0.00372  -0.00119 -17.25235
    Y1        1.28609  -0.00641   0.00000   0.00990   0.01142   1.29752
    Z1        3.12484  -0.00201   0.00000  -0.00934  -0.00903   3.11581
    X2      -14.65245  -0.01337   0.00000   0.01761   0.01997 -14.63248
    Y2        2.04539  -0.00494   0.00000  -0.00911  -0.00787   2.03752
    Z2        3.35699  -0.00346   0.00000  -0.01066  -0.00753   3.34946
    X3      -17.48395   0.00106   0.00000  -0.00635  -0.00117 -17.48512
    Y3       -0.11680   0.00336   0.00000   0.01019   0.00600  -0.11080
    Z3        1.59375   0.00391   0.00000  -0.00168   0.00351   1.59726
    X4      -18.49119   0.00408   0.00000   0.01709   0.02132 -18.46987
    Y4        2.90772  -0.00357   0.00000   0.01785   0.01819   2.92591
    Z4        2.67942   0.00145   0.00000  -0.01056  -0.01911   2.66031
    X5      -17.95520   0.00235   0.00000  -0.00164  -0.00330 -17.95850
    Y5        0.41786   0.00236   0.00000   0.02155   0.03015   0.44801
    Z5        4.88969  -0.00428   0.00000  -0.00844  -0.00638   4.88330
    X6      -12.49531   0.03064   0.00000   0.00985   0.01181 -12.48350
    Y6        2.68892   0.01183   0.00000   0.02319   0.02472   2.71363
    Z6        3.60303   0.00820   0.00000   0.06580   0.07097   3.67400
    X7      -10.06744  -0.00922   0.00000  -0.18885  -0.19067 -10.25811
    Y7        6.26098   0.01084   0.00000  -0.09900  -0.08902   6.17195
    Z7        6.18787  -0.03887   0.00000  -0.04838  -0.05163   6.13624
    X8       -9.70595   0.01299   0.00000  -0.01866  -0.02433  -9.73029
    Y8        5.76424   0.02654   0.00000   0.00951   0.02577   5.79002
    Z8        7.87568   0.03387   0.00000  -0.03101  -0.03164   7.84404
    X9       -9.94572  -0.00627   0.00000   0.17439   0.16756  -9.77816
    Y9        3.98503  -0.04001   0.00000  -0.03625  -0.01934   3.96569
    Z9        7.95895   0.00120   0.00000   0.04459   0.05084   8.00979
         Item               Value     Threshold  Converged?
 Maximum Force            0.040006     0.000450     NO 
 RMS     Force            0.016515     0.000300     NO 
 Maximum Displacement     0.190668     0.001800     NO 
 RMS     Displacement     0.057387     0.001200     NO 
 Predicted change in Energy=-3.681808D-03
 Lowest energy point so far.  Saving SCF results.
 GradGradGradGradGradGradGradGradGradGradGradGradGradGradGradGradGradGrad

 Leave Link  103 at Tue Jan  5 12:14:12 2021, MaxMem=    33554432 cpu:         0.0
 (Enter /apps/applications/gaussian/G09.D01/2/default/g09/l202.exe)
                          Input orientation:                          
 ---------------------------------------------------------------------
 Center     Atomic      Atomic             Coordinates (Angstroms)
 Number     Number       Type             X           Y           Z
 ---------------------------------------------------------------------
      1          6           0       -9.129548    0.686616    1.648815
      2          6           0       -7.743175    1.078212    1.772457
      3          1           0       -9.252724   -0.058635    0.845234
      4          1           0       -9.773837    1.548324    1.407777
      5          1           0       -9.503230    0.237076    2.584132
      6          6           0       -6.605985    1.435993    1.944195
      7          1           0       -5.428356    3.266057    3.247160
      8          8           0       -5.149046    3.063945    4.150890
      9          1           0       -5.174379    2.098552    4.238598
 ---------------------------------------------------------------------
                    Distance matrix (angstroms):
                    1          2          3          4          5
     1  C    0.000000
     2  C    1.445913   0.000000
     3  H    1.102865   2.104971   0.000000
     4  H    1.102610   2.116031   1.780542   0.000000
     5  H    1.102970   2.112846   1.781562   1.782249   0.000000
     6  C    2.648998   1.204451   3.232160   3.214911   3.200149
     7  H    4.786131   3.509957   5.607907   5.021667   5.120442
     8  O    5.268441   4.040988   6.125197   5.586633   5.422623
     9  H    4.933954   3.704275   5.727240   5.428749   4.994127
                    6          7          8          9
     6  C    0.000000
     7  H    2.536466   0.000000
     8  O    3.105221   0.967259   0.000000
     9  H    2.784378   1.552585   0.969700   0.000000
 Symmetry turned off by external request.
 Stoichiometry    C3H5O(2)
 Framework group  C1[X(C3H5O)]
 Deg. of freedom    21
 Full point group                 C1      NOp   1
 Rotational constants (GHZ):     29.6491676      1.9938887      1.9076102
 Leave Link  202 at Tue Jan  5 12:14:12 2021, MaxMem=    33554432 cpu:         0.0
 (Enter /apps/applications/gaussian/G09.D01/2/default/g09/l301.exe)
 Standard basis: 3-21G (6D, 7F)
 Ernie: Thresh=  0.10000D-02 Tol=  0.10000D-05 Strict=F.
    46 basis functions,    75 primitive gaussians,    46 cartesian basis functions
    16 alpha electrons       15 beta electrons
       nuclear repulsion energy        89.8449059610 Hartrees.
 IExCor=  402 DFT=T Ex+Corr=B3LYP ExCW=0 ScaHFX=  0.200000
 ScaDFX=  0.800000  0.720000  1.000000  0.810000 ScalE2=  1.000000  1.000000
 IRadAn=      0 IRanWt=     -1 IRanGd=            0 ICorTp=0 IEmpDi=  4
 NAtoms=    9 NActive=    9 NUniq=    9 SFac= 1.00D+00 NAtFMM=   60 NAOKFM=F Big=F
 Integral buffers will be    131072 words long.
 Raffenetti 2 integral format.
 Two-electron integral symmetry is turned off.
 Leave Link  301 at Tue Jan  5 12:14:12 2021, MaxMem=    33554432 cpu:         0.0
 (Enter /apps/applications/gaussian/G09.D01/2/default/g09/l302.exe)
 NPDir=0 NMtPBC=     1 NCelOv=     1 NCel=       1 NClECP=     1 NCelD=      1
         NCelK=      1 NCelE2=     1 NClLst=     1 CellRange=     0.0.
 One-electron integrals computed using PRISM.
 NBasis=    46 RedAO= T EigKep=  2.77D-03  NBF=    46
 NBsUse=    46 1.00D-06 EigRej= -1.00D+00 NBFU=    46
 Precomputing XC quadrature grid using
 IXCGrd= 4 IRadAn=           0 IRanWt=          -1 IRanGd=           0 AccXCQ= 0.00D+00.
 Generated NRdTot=       0 NPtTot=           0 NUsed=           0 NTot=          32
 NSgBfM=    45    45    45    45    45 MxSgAt=     9 MxSgA2=     9.
 Leave Link  302 at Tue Jan  5 12:14:12 2021, MaxMem=    33554432 cpu:         0.1
 (Enter /apps/applications/gaussian/G09.D01/2/default/g09/l303.exe)
 DipDrv:  MaxL=1.
 Leave Link  303 at Tue Jan  5 12:14:12 2021, MaxMem=    33554432 cpu:         0.0
 (Enter /apps/applications/gaussian/G09.D01/2/default/g09/l401.exe)
 Initial guess from the checkpoint file:  "/nobackup/chmrsh/Scratch/Gau-32554.chk"
 B after Tr=     0.015673   -0.053919    0.091059
         Rot=    0.999988    0.004175    0.002349    0.000931 Ang=   0.56 deg.
 Guess basis will be translated and rotated to current coordinates.
 JPrj=2 DoOrth=T DoCkMO=T.
 Initial guess <Sx>= 0.0000 <Sy>= 0.0000 <Sz>= 0.5000 <S**2>= 0.7706 S= 0.5102
 Generating alternative initial guess.
 ExpMin= 1.83D-01 ExpMax= 3.22D+02 ExpMxC= 3.22D+02 IAcc=1 IRadAn=         1 AccDes= 0.00D+00
 Harris functional with IExCor=  402 and IRadAn=       1 diagonalized for initial guess.
 HarFok:  IExCor=  402 AccDes= 0.00D+00 IRadAn=         1 IDoV= 1 UseB2=F ITyADJ=14
 ICtDFT=  3500011 ScaDFX=  1.000000  1.000000  1.000000  1.000000
 FoFCou: FMM=F IPFlag=           0 FMFlag=      100000 FMFlg1=           0
         NFxFlg=           0 DoJE=T BraDBF=F KetDBF=T FulRan=T
         wScrn=  0.000000 ICntrl=     500 IOpCl=  0 I1Cent=   200000004 NGrid=           0
         NMat0=    1 NMatS0=      1 NMatT0=    0 NMatD0=    1 NMtDS0=    0 NMtDT0=    0
 Symmetry not used in FoFCou.
 Harris En= -191.300799722624    
 Leave Link  401 at Tue Jan  5 12:14:12 2021, MaxMem=    33554432 cpu:         0.2
 (Enter /apps/applications/gaussian/G09.D01/2/default/g09/l508.exe)
 Direct SCF.
 Tight linear equation convergence will be used.
 UB3LYP wavefunction.
 Quadratic Convergence SCF Method.
 Line search only if initial step raises energy.
 Two-electron integral symmetry not used.
 ReadGW:  IGet=1 IStart=         402 Next=         402 LGW=           0.
 Keep R1 and R2 ints in memory in canonical form, NReq=2054730.
 FoFCou: FMM=F IPFlag=           0 FMFlag=           0 FMFlg1=           0
         NFxFlg=           0 DoJE=F BraDBF=F KetDBF=F FulRan=T
         wScrn=  0.000000 ICntrl=     600 IOpCl=  0 I1Cent=           0 NGrid=           0
         NMat0=    1 NMatS0=   1081 NMatT0=    0 NMatD0=    1 NMtDS0=    0 NMtDT0=    0
 Symmetry not used in FoFCou.
 Iteration   1 EE= -191.273687522430                                    Grad=6.945D-02 Max rot=    0.8905 deg.
 Gradient too large for Newton-Raphson -- use scaled steepest descent instead.
 Alpha Gap=     0.494 HL deriv= 3.59D-04
  Beta Gap=     0.377 HL deriv= 2.35D-04
     ILin= 1 X=0.000D+00 Y=-1.912736875224D+02 DE= 0.00D+00 F= -6.69D-03
     ILin= 2 X=3.000D-01 Y=-1.912753904922D+02 DE=-1.70D-03 F= -4.66D-03
     ILin= 3 X=6.000D-01 Y=-1.912764828044D+02 DE=-2.80D-03 F= -2.62D-03
     ILin= 4 X=1.200D+00 Y=-1.912768297102D+02 DE=-3.14D-03 F=  1.47D-03
     Accept linear search using points  3 and  4.
     An  expanding polynomial of degree  4 produced  0.9351
 Iteration   2 EE= -191.276979102541     Delta-E=       -0.003291580111 Grad=3.102D-02 Max rot=    0.6081 deg.
 Gradient too large for Newton-Raphson -- use scaled steepest descent instead.
 Alpha Gap=     0.506 HL deriv= 1.20D-04
  Beta Gap=     0.388 HL deriv= 1.93D-04
     ILin= 1 X=0.000D+00 Y=-1.912769791025D+02 DE= 0.00D+00 F= -1.30D-03
     ILin= 2 X=5.000D-01 Y=-1.912773858518D+02 DE=-4.07D-04 F= -3.23D-04
     ILin= 3 X=1.100D+00 Y=-1.912772263597D+02 DE=-2.47D-04 F=  8.54D-04
     An  expanding polynomial of degree  3 produced  0.6645
 Iteration   3 EE= -191.277412408128     Delta-E=       -0.000433305587 Grad=1.978D-02 Max rot=    0.4048 deg.
 Gradient too large for Newton-Raphson -- use scaled steepest descent instead.
 Alpha Gap=     0.497 HL deriv= 2.21D-05
  Beta Gap=     0.380 HL deriv= 7.12D-04
     ILin= 1 X=0.000D+00 Y=-1.912774124081D+02 DE= 0.00D+00 F= -6.04D-04
     ILin= 2 X=8.000D-01 Y=-1.912776270002D+02 DE=-2.15D-04 F=  6.80D-05
     Accept linear search using points  1 and  2.
     An  expanding polynomial of degree  2 produced  0.6700
 Iteration   4 EE= -191.277628724264     Delta-E=       -0.000216316136 Grad=1.520D-02 Max rot=    0.3043 deg.
 Gradient too large for Newton-Raphson -- use scaled steepest descent instead.
 Alpha Gap=     0.504 HL deriv= 7.06D-05
  Beta Gap=     0.386 HL deriv= 8.39D-05
     ILin= 1 X=0.000D+00 Y=-1.912776287243D+02 DE= 0.00D+00 F= -3.30D-04
     ILin= 2 X=7.000D-01 Y=-1.912777563358D+02 DE=-1.28D-04 F= -3.42D-05
     Reject lnstep minimum 1.333D+00 FVal=-1.912777796175D+02 Lims=  0.00D+00  7.00D-01
     ILin= 3 X=1.300D+00 Y=-1.912777007635D+02 DE=-7.20D-05 F=  2.19D-04
     An  expanding polynomial of degree  3 produced  0.7810
 Iteration   5 EE= -191.277757718868     Delta-E=       -0.000128994604 Grad=1.253D-02 Max rot=    0.2600 deg.
 Gradient too large for Newton-Raphson -- use scaled steepest descent instead.
 Alpha Gap=     0.499 HL deriv= 2.65D-06
  Beta Gap=     0.381 HL deriv= 3.72D-04
     ILin= 1 X=0.000D+00 Y=-1.912777577189D+02 DE= 0.00D+00 F= -2.46D-04
     ILin= 2 X=7.000D-01 Y=-1.912778342220D+02 DE=-7.65D-05 F=  2.71D-05
     Accept linear search using points  1 and  2.
     An  expanding polynomial of degree  2 produced  0.5527
 Iteration   6 EE= -191.277833986890     Delta-E=       -0.000076268021 Grad=8.107D-03 Max rot=    0.1565 deg.
 QCNR:  CnvC1=3.07D-09 CnvC2=3.07D-08
 LinEq1:  Iter=  0 NonCon=     1 RMS=5.41D-04 Max=7.34D-03 NDo=     1
 AX will form     1 AO Fock derivatives at one time.
 LinEq1:  Iter=  1 NonCon=     1 RMS=2.63D-04 Max=4.19D-03 NDo=     1
 LinEq1:  Iter=  2 NonCon=     1 RMS=2.72D-04 Max=4.93D-03 NDo=     1
 LinEq1:  Iter=  3 NonCon=     1 RMS=2.90D-04 Max=4.20D-03 NDo=     1
 LinEq1:  Iter=  4 NonCon=     1 RMS=1.16D-04 Max=8.90D-04 NDo=     1
 LinEq1:  Iter=  5 NonCon=     1 RMS=5.88D-05 Max=1.01D-03 NDo=     1
 LinEq1:  Iter=  6 NonCon=     1 RMS=2.34D-05 Max=3.66D-04 NDo=     1
 LinEq1:  Iter=  7 NonCon=     1 RMS=7.25D-06 Max=9.00D-05 NDo=     1
 LinEq1:  Iter=  8 NonCon=     1 RMS=2.25D-06 Max=1.63D-05 NDo=     1
 LinEq1:  Iter=  9 NonCon=     1 RMS=1.46D-06 Max=1.91D-05 NDo=     1
 LinEq1:  Iter= 10 NonCon=     1 RMS=8.40D-07 Max=1.63D-05 NDo=     1
 LinEq1:  Iter= 11 NonCon=     1 RMS=1.99D-07 Max=1.80D-06 NDo=     1
 LinEq1:  Iter= 12 NonCon=     1 RMS=4.71D-08 Max=3.91D-07 NDo=     1
 LinEq1:  Iter= 13 NonCon=     1 RMS=1.34D-08 Max=9.55D-08 NDo=     1
 LinEq1:  Iter= 14 NonCon=     1 RMS=3.29D-09 Max=3.10D-08 NDo=     1
 LinEq1:  Iter= 15 NonCon=     0 RMS=8.04D-10 Max=5.93D-09 NDo=     1
 Linear equations converged to 3.074D-09 3.074D-08 after    15 iterations.
 Angle between quadratic step and gradient=  62.76 degrees.
     ILin= 1 X=0.000D+00 Y=-1.912778339869D+02 DE= 0.00D+00 F= -2.88D-04
     ILin= 2 X=1.000D+00 Y=-1.912779782788D+02 DE=-1.44D-04 F= -1.09D-06
     Reject lnstep minimum 1.004D+00 FVal=-1.912779782809D+02 Lims=  0.00D+00  1.00D+00
     ILin= 3 X=2.000D+00 Y=-1.912778366651D+02 DE=-2.68D-06 F=  2.84D-04
     An  expanding polynomial of degree  3 produced  1.0047
     Minimum is close to point  2 DX=  4.68D-03 DF= -3.14D-09 DXR=  4.66D-03 DFR=  2.17D-05 which will be used.
 Iteration   7 EE= -191.277978278846     Delta-E=       -0.000144291956 Grad=3.044D-04 Max rot=    0.0060 deg.
 QCNR:  CnvC1=3.04D-09 CnvC2=3.04D-08
 LinEq1:  Iter=  0 NonCon=     1 RMS=2.13D-05 Max=3.11D-04 NDo=     1
 LinEq1:  Iter=  1 NonCon=     1 RMS=1.45D-05 Max=2.04D-04 NDo=     1
 LinEq1:  Iter=  2 NonCon=     1 RMS=6.39D-06 Max=6.97D-05 NDo=     1
 LinEq1:  Iter=  3 NonCon=     1 RMS=6.67D-06 Max=1.07D-04 NDo=     1
 LinEq1:  Iter=  4 NonCon=     1 RMS=2.45D-06 Max=2.87D-05 NDo=     1
 LinEq1:  Iter=  5 NonCon=     1 RMS=1.31D-06 Max=1.01D-05 NDo=     1
 LinEq1:  Iter=  6 NonCon=     1 RMS=7.90D-07 Max=8.16D-06 NDo=     1
 LinEq1:  Iter=  7 NonCon=     1 RMS=1.98D-07 Max=1.89D-06 NDo=     1
 LinEq1:  Iter=  8 NonCon=     1 RMS=7.71D-08 Max=5.18D-07 NDo=     1
 LinEq1:  Iter=  9 NonCon=     1 RMS=3.92D-08 Max=5.27D-07 NDo=     1
 LinEq1:  Iter= 10 NonCon=     1 RMS=1.58D-08 Max=2.71D-07 NDo=     1
 LinEq1:  Iter= 11 NonCon=     1 RMS=5.17D-09 Max=5.07D-08 NDo=     1
 LinEq1:  Iter= 12 NonCon=     0 RMS=1.28D-09 Max=9.46D-09 NDo=     1
 Linear equations converged to 3.044D-09 3.044D-08 after    12 iterations.
 Angle between quadratic step and gradient=  71.25 degrees.
     ILin= 1 X=0.000D+00 Y=-1.912779782788D+02 DE= 0.00D+00 F= -1.34D-07
     ILin= 2 X=1.000D+00 Y=-1.912779783460D+02 DE=-6.72D-08 F= -1.03D-10
     Reject lnstep minimum 1.001D+00 FVal=-1.912779783460D+02 Lims=  0.00D+00  1.00D+00
     ILin= 3 X=2.000D+00 Y=-1.912779782791D+02 DE=-2.74D-10 F=  1.34D-07
     An  expanding polynomial of degree  3 produced  1.0010
     Minimum is close to point  2 DX=  1.02D-03 DF= -5.68D-14 DXR=  1.02D-03 DFR=  8.46D-07 which will be used.
 Iteration   8 EE= -191.277978346005     Delta-E=       -0.000000067160 Grad=2.984D-07 Max rot=    0.0000 deg.
 Rotation gradient small -- convergence achieved.
 SCF Done:  E(UB3LYP) =  -191.277978346     a.u. after    8 cycles
            Convg  =    0.2984D-06                    46 Fock formations.
              S**2 =  0.7699                  -V/T =  2.0082
 <Sx>= 0.0000 <Sy>= 0.0000 <Sz>= 0.5000 <S**2>= 0.7699 S= 0.5099
 <L.S>= 0.000000000000E+00
 Annihilation of the first spin contaminant:
 S**2 before annihilation     0.7699,   after     0.7502
 Leave Link  508 at Tue Jan  5 12:15:09 2021, MaxMem=    33554432 cpu:        27.5
 (Enter /apps/applications/gaussian/G09.D01/2/default/g09/l801.exe)
 DoSCS=F DFT=T ScalE2(SS,OS)=  1.000000  1.000000
 Range of M.O.s used for correlation:     1    46
 NBasis=    46 NAE=    16 NBE=    15 NFC=     0 NFV=     0
 NROrb=     46 NOA=    16 NOB=    15 NVA=    30 NVB=    31

 **** Warning!!: The smallest beta delta epsilon is  0.70983087D-01

 Leave Link  801 at Tue Jan  5 12:15:09 2021, MaxMem=    33554432 cpu:         0.0
 (Enter /apps/applications/gaussian/G09.D01/2/default/g09/l1101.exe)
 Using compressed storage, NAtomX=     9.
 Will process     10 centers per pass.
 Leave Link 1101 at Tue Jan  5 12:15:09 2021, MaxMem=    33554432 cpu:         0.1
 (Enter /apps/applications/gaussian/G09.D01/2/default/g09/l1102.exe)
 Symmetrizing basis deriv contribution to polar:
 IMax=3 JMax=2 DiffMx= 0.00D+00
 Leave Link 1102 at Tue Jan  5 12:15:09 2021, MaxMem=    33554432 cpu:         0.0
 (Enter /apps/applications/gaussian/G09.D01/2/default/g09/l1110.exe)
 Forming Gx(P) for the SCF density, NAtomX=     9.
 Integral derivatives from FoFJK, PRISM(SPDF).
 Do as many integral derivatives as possible in FoFJK.
 G2DrvN: MDV=      33554256.
 G2DrvN: will do    10 centers at a time, making    1 passes.
 Calling FoFCou, ICntrl=  3107 FMM=F I1Cent=   0 AccDes= 0.00D+00.
 FoFJK:  IHMeth= 1 ICntrl=    3107 DoSepK=F KAlg= 0 I1Cent=   0 FoldK=F
 IRaf=         0 NMat=   1 IRICut=       1 DoRegI=T DoRafI=F ISym2E= 0.
 FoFCou: FMM=F IPFlag=           0 FMFlag=      100000 FMFlg1=           0
         NFxFlg=           0 DoJE=F BraDBF=F KetDBF=F FulRan=T
         wScrn=  0.000000 ICntrl=    3107 IOpCl=  1 I1Cent=           0 NGrid=           0
         NMat0=    1 NMatS0=      1 NMatT0=    0 NMatD0=    1 NMtDS0=    0 NMtDT0=    0
 Symmetry not used in FoFCou.
 End of G2Drv F.D. properties file   721 does not exist.
 End of G2Drv F.D. properties file   722 does not exist.
 End of G2Drv F.D. properties file   788 does not exist.
 Leave Link 1110 at Tue Jan  5 12:15:17 2021, MaxMem=    33554432 cpu:         8.6
 (Enter /apps/applications/gaussian/G09.D01/2/default/g09/l1002.exe)
 Minotr:  UHF open shell wavefunction.
          IDoAtm=111111111
          Direct CPHF calculation.
          Differentiating once with respect to electric field.
                with respect to dipole field.
          Differentiating once with respect to nuclear coordinates.
          Requested convergence is 1.0D-08 RMS, and 1.0D-07 maximum.
          Secondary convergence is 1.0D-12 RMS, and 1.0D-12 maximum.
          NewPWx=T KeepS1=F KeepF1=F KeepIn=T MapXYZ=F SortEE=F KeepMc=T.
          MDV=      33554246 using IRadAn=       2.
 Generate precomputed XC quadrature information.
 Keep R1 and R2 ints in memory in canonical form, NReq=2035827.
 FoFCou: FMM=F IPFlag=           0 FMFlag=           0 FMFlg1=           0
         NFxFlg=           0 DoJE=F BraDBF=F KetDBF=F FulRan=T
         wScrn=  0.000000 ICntrl=     600 IOpCl=  0 I1Cent=           0 NGrid=           0
         NMat0=    1 NMatS0=   1081 NMatT0=    0 NMatD0=    1 NMtDS0=    0 NMtDT0=    0
 Symmetry not used in FoFCou.
          Solving linear equations simultaneously, MaxMat=       0.
          There are    30 degrees of freedom in the 1st order CPHF.  IDoFFX=6 NUNeed=     3.
     27 vectors produced by pass  0 Test12= 3.15D-15 3.33D-09 XBig12= 1.14D+02 4.12D+00.
 AX will form    27 AO Fock derivatives at one time.
     27 vectors produced by pass  1 Test12= 3.15D-15 3.33D-09 XBig12= 4.42D+01 1.42D+00.
     27 vectors produced by pass  2 Test12= 3.15D-15 3.33D-09 XBig12= 2.49D-01 1.01D-01.
     27 vectors produced by pass  3 Test12= 3.15D-15 3.33D-09 XBig12= 1.15D-03 7.39D-03.
     27 vectors produced by pass  4 Test12= 3.15D-15 3.33D-09 XBig12= 5.20D-06 4.79D-04.
     24 vectors produced by pass  5 Test12= 3.15D-15 3.33D-09 XBig12= 1.28D-08 1.79D-05.
      7 vectors produced by pass  6 Test12= 3.15D-15 3.33D-09 XBig12= 2.47D-11 7.76D-07.
      3 vectors produced by pass  7 Test12= 3.15D-15 3.33D-09 XBig12= 5.89D-14 4.76D-08.
 InvSVY:  IOpt=1 It=  1 EMax= 1.07D-14
 Solved reduced A of dimension   169 with    30 vectors.
 FullF1:  Do perturbations    1 to     3.
 Isotropic polarizability for W=    0.000000       44.57 Bohr**3.
 End of Minotr F.D. properties file   721 does not exist.
 End of Minotr F.D. properties file   722 does not exist.
 End of Minotr F.D. properties file   788 does not exist.
 Leave Link 1002 at Tue Jan  5 12:15:40 2021, MaxMem=    33554432 cpu:         7.3
 (Enter /apps/applications/gaussian/G09.D01/2/default/g09/l701.exe)
 Compute integral second derivatives.
 ... and contract with generalized density number  0.
 Leave Link  701 at Tue Jan  5 12:15:40 2021, MaxMem=    33554432 cpu:         0.1
 (Enter /apps/applications/gaussian/G09.D01/2/default/g09/l702.exe)
 L702 exits ... SP integral derivatives will be done elsewhere.
 Leave Link  702 at Tue Jan  5 12:15:40 2021, MaxMem=    33554432 cpu:         0.0
 (Enter /apps/applications/gaussian/G09.D01/2/default/g09/l703.exe)
 Compute integral second derivatives, UseDBF=F ICtDFT=           0.
 Integral derivatives from FoFJK, PRISM(SPDF).
 Calling FoFJK, ICntrl=    100127 FMM=F ISym2X=0 I1Cent= 0 IOpClX= 1 NMat=1 NMatS=1 NMatT=0.
 FoFJK:  IHMeth= 1 ICntrl=  100127 DoSepK=F KAlg= 0 I1Cent=   0 FoldK=F
 IRaf=         0 NMat=   1 IRICut=       1 DoRegI=T DoRafI=F ISym2E= 0.
 FoFCou: FMM=F IPFlag=           0 FMFlag=      100000 FMFlg1=         800
         NFxFlg=           0 DoJE=F BraDBF=F KetDBF=F FulRan=T
         wScrn=  0.000000 ICntrl=  100127 IOpCl=  1 I1Cent=           0 NGrid=           0
         NMat0=    1 NMatS0=      1 NMatT0=    0 NMatD0=    1 NMtDS0=    0 NMtDT0=    0
 Symmetry not used in FoFCou.
 Leave Link  703 at Tue Jan  5 12:15:48 2021, MaxMem=    33554432 cpu:         7.5
 (Enter /apps/applications/gaussian/G09.D01/2/default/g09/l716.exe)
 Dipole        =-8.05360818D-01-7.16530822D-01-6.21362041D-01
 Polarizability= 4.92111509D+01 1.76543953D+01 4.03127866D+01
                 2.05364193D+01 1.40548062D+01 4.41969282D+01
 -------------------------------------------------------------------
 Center     Atomic                   Forces (Hartrees/Bohr)
 Number     Number              X              Y              Z
 -------------------------------------------------------------------
      1        6          -0.015320353   -0.004631128   -0.001406019
      2        6          -0.007857292   -0.003284395   -0.002412370
      3        1           0.000582164    0.002334093    0.002562274
      4        1           0.003043582   -0.002391164    0.000915203
      5        1           0.001879636    0.001722597   -0.003124366
      6        6           0.020274467    0.009135569    0.007388742
      7        1          -0.008274298    0.003280250   -0.023150179
      8        8           0.007385709    0.015189400    0.018890527
      9        1          -0.001713616   -0.021355224    0.000336188
 -------------------------------------------------------------------
 Cartesian Forces:  Max     0.023150179 RMS     0.009900222
 Force constants in Cartesian coordinates: 
                1             2             3             4             5 
      1  0.516918D+00
      2 -0.383886D-03  0.502949D+00
      3 -0.746269D-03 -0.678732D-02  0.503460D+00
      4 -0.272237D+00 -0.393200D-01  0.118426D-01  0.129671D+01
      5 -0.628159D-01 -0.510786D-01  0.986406D-02  0.348028D+00  0.136476D+00
      6 -0.186841D-01  0.355528D-02 -0.387432D-01  0.118398D+00  0.294548D-01
      7 -0.493167D-01 -0.183793D-01 -0.199636D-01 -0.536356D-02 -0.219732D-01
      8 -0.148202D-01 -0.159321D+00 -0.120646D+00 -0.730510D-02 -0.711331D-02
      9 -0.163478D-01 -0.119908D+00 -0.178296D+00 -0.609493D-02 -0.293601D-02
     10 -0.127528D+00  0.113518D+00 -0.304840D-01 -0.337290D-01  0.195861D-01
     11  0.110018D+00 -0.201230D+00  0.427843D-01 -0.798592D-02  0.967557D-02
     12 -0.305033D-01  0.437386D-01 -0.590969D-01 -0.311003D-02 -0.940244D-03
     13 -0.727949D-01 -0.322523D-01  0.697573D-01 -0.272116D-01 -0.173393D-01
     14 -0.314126D-01 -0.875911D-01  0.864243D-01 -0.899160D-02 -0.670960D-02
     15  0.668693D-01  0.849800D-01 -0.226673D+00 -0.831760D-04 -0.295875D-02
     16  0.477624D-02 -0.226686D-01 -0.294082D-01 -0.958613D+00 -0.266008D+00
     17 -0.885837D-03 -0.281268D-02 -0.101184D-01 -0.286094D+00 -0.827065D-01
     18 -0.106041D-02 -0.383999D-02  0.198469D-02 -0.124374D+00 -0.350042D-01
     19 -0.141574D-03  0.130635D-02  0.107549D-02 -0.259975D-02 -0.235968D-02
     20 -0.397768D-03  0.288926D-02  0.392169D-02 -0.603887D-02 -0.529326D-02
     21  0.181986D-03 -0.120693D-02 -0.246731D-02  0.240271D-02  0.179383D-02
     22  0.456976D-03 -0.298450D-02 -0.401650D-02  0.625698D-02  0.482708D-02
     23  0.472677D-03 -0.226130D-02 -0.343363D-02  0.517222D-02  0.398428D-02
     24  0.455860D-03 -0.185963D-02 -0.302430D-02  0.526934D-02  0.331216D-02
     25 -0.132658D-03  0.116398D-02  0.194310D-02 -0.321230D-02 -0.194547D-02
     26  0.225267D-03 -0.154394D-02 -0.200900D-02  0.253498D-02  0.276553D-02
     27 -0.165325D-03  0.132849D-02  0.285546D-02 -0.425043D-02 -0.258566D-02
                6             7             8             9            10 
      6  0.509821D-01
      7 -0.233161D-01  0.608106D-01
      8 -0.670222D-02  0.211070D-01  0.175038D+00
      9 -0.151184D-02  0.208032D-01  0.136286D+00  0.195859D+00
     10 -0.826109D-02  0.237467D-02 -0.234889D-02  0.143626D-02  0.148239D+00
     11 -0.346031D-02  0.130703D-01 -0.191226D-01  0.585052D-02 -0.122067D+00
     12 -0.243602D-02  0.157447D-01 -0.205774D-01  0.540159D-02  0.350268D-01
     13  0.259869D-01  0.102168D-02  0.218889D-02 -0.251758D-02  0.737185D-02
     14  0.403451D-02  0.885472D-02  0.981204D-02 -0.206224D-01 -0.909173D-02
     15  0.543410D-02  0.772283D-02  0.108606D-01 -0.221407D-01  0.172555D-02
     16 -0.953376D-01 -0.927938D-02  0.114410D-02  0.270391D-02  0.325150D-02
     17 -0.285902D-01 -0.218161D-02  0.683725D-03  0.132322D-02  0.367344D-03
     18 -0.171098D-01 -0.119777D-03  0.763685D-03  0.614047D-03  0.489652D-03
     19 -0.115159D-02  0.495148D-03  0.100072D-03 -0.924194D-04 -0.170801D-03
     20 -0.610287D-02  0.136848D-02 -0.372928D-04 -0.190535D-03 -0.238279D-04
     21  0.389163D-02 -0.742829D-03  0.506417D-04 -0.101171D-04 -0.330228D-04
     22  0.528840D-02 -0.143694D-02 -0.394075D-04  0.944096D-04  0.166201D-03
     23  0.472706D-02 -0.119562D-02  0.573630D-04  0.109712D-03 -0.437314D-04
     24  0.413192D-02 -0.103436D-02  0.581378D-04  0.134211D-03 -0.313298D-04
     25 -0.292306D-02  0.694443D-03 -0.265142D-04  0.149531D-04  0.248834D-04
     26  0.308395D-02 -0.670800D-03  0.291217D-05  0.878072D-04  0.103895D-03
     27 -0.463888D-02  0.905912D-03 -0.936567D-04 -0.495182D-04  0.131196D-03
               11            12            13            14            15 
     11  0.222424D+00
     12 -0.474721D-01  0.620408D-01
     13  0.746495D-02 -0.175651D-01  0.875539D-01
     14 -0.116365D-01  0.242379D-01  0.386582D-01  0.946960D-01
     15  0.210979D-02 -0.674583D-02 -0.754819D-01 -0.951199D-01  0.250000D+00
     16 -0.515022D-03  0.414199D-03  0.394683D-02  0.191350D-02 -0.801976D-03
     17 -0.153741D-03  0.100597D-02  0.114528D-02  0.130690D-02  0.305004D-04
     18  0.857886D-04  0.783786D-03 -0.441993D-03  0.846260D-03 -0.293051D-04
     19 -0.130837D-03 -0.157627D-03 -0.258393D-04 -0.845084D-04 -0.558422D-04
     20 -0.125739D-03 -0.294280D-04 -0.292126D-03 -0.202723D-03 -0.195394D-03
     21  0.329767D-04 -0.135804D-04  0.315545D-03  0.218455D-03  0.154580D-03
     22  0.183910D-03  0.161339D-03  0.373340D-03  0.365718D-03  0.244299D-03
     23  0.756558D-04 -0.125205D-04  0.285293D-03  0.207327D-03  0.185272D-03
     24  0.642076D-04 -0.196117D-05  0.167107D-03  0.136409D-03  0.150201D-03
     25 -0.382946D-04 -0.110436D-04 -0.235315D-03 -0.211680D-03 -0.139107D-03
     26  0.927079D-04  0.492353D-04  0.141115D-03  0.117712D-03  0.107922D-03
[...]
 Rotational               0.889              2.981             23.897
 Vibrational             43.758             13.244             17.877
 Vibration     1          0.594              1.981              5.227
 Vibration     2          0.598              1.970              4.219
 Vibration     3          0.602              1.956              3.638
 Vibration     4          0.689              1.684              1.447
 Vibration     5          0.704              1.640              1.322
 Vibration     6          0.722              1.589              1.197
 Vibration     7          0.909              1.132              0.537
                       Q            Log10(Q)             Ln(Q)
 Total Bot       0.857100D-16        -16.066969        -36.995562
 Total V=0       0.163320D+15         14.213039         32.726732
 Vib (Bot)       0.679460D-28        -28.167836        -64.858839
 Vib (Bot)    1  0.508989D+01          0.706709          1.627257
 Vib (Bot)    2  0.304675D+01          0.483837          1.114077
 Vib (Bot)    3  0.225861D+01          0.353841          0.814749
 Vib (Bot)    4  0.647328D+00         -0.188876         -0.434902
 Vib (Bot)    5  0.592536D+00         -0.227285         -0.523344
 Vib (Bot)    6  0.539780D+00         -0.267784         -0.616594
 Vib (Bot)    7  0.282733D+00         -0.548624         -1.263253
 Vib (V=0)       0.129471D+03          2.112171          4.863455
 Vib (V=0)    1  0.561439D+01          0.749303          1.725334
 Vib (V=0)    2  0.358751D+01          0.554793          1.277458
 Vib (V=0)    3  0.281329D+01          0.449214          1.034354
 Vib (V=0)    4  0.131794D+01          0.119897          0.276073
 Vib (V=0)    5  0.127531D+01          0.105614          0.243186
 Vib (V=0)    6  0.123577D+01          0.091939          0.211697
 Vib (V=0)    7  0.107440D+01          0.031167          0.071764
 Electronic      0.200000D+01          0.301030          0.693147
 Translational   0.169300D+08          7.228656         16.644596
 Rotational      0.372547D+05          4.571181         10.525533
 
                                                    Gaussian input prepared by AS
 E
                                                             IR Spectrum
 
     3            33 3 2                            2                     111  1            11                                       
     4            00 0 9                            2                     555  4            00    9             5       332          
     6            99 4 9                            0                     854  6            98    3             5       419      964 
     9            86 1 8                            9                     807  9            68    9             3       385      181 
 
     X            XX X X                            X                     XXX  X            XX    X             X       XXX      XXX 
     X               X X                                                  X                  X                  X                X X 
     X                 X                                                  X                                     X                  X 
     X                 X                                                  X                                     X                  X 
     X                 X                                                  X                                     X                    
                       X                                                  X                                     X                    
                                                                          X                                     X                    
                                                                          X                                     X                    
                                                                          X                                     X                    
                                                                          X                                     X                    
                                                                          X                                     X                    
                                                                          X                                     X                    
                                                                                                                X                    
                                                                                                                X                    
                                                                                                                X                    
                                                                                                                X                    
                                                                                                                X                    
                                                                                                                X                    
                                                                                                                X                    
                                                                                                                X                    
 
 -------------------------------------------------------------------
 Center     Atomic                   Forces (Hartrees/Bohr)
 Number     Number              X              Y              Z
 -------------------------------------------------------------------
      1        6          -0.000000963   -0.000000163    0.000000837
      2        6           0.000000400   -0.000000303    0.000000417
      3        1          -0.000000531   -0.000002720    0.000004005
      4        1           0.000002257   -0.000001015   -0.000002710
      5        1          -0.000002141    0.000003794    0.000001119
      6        6           0.000000495   -0.000000663   -0.000001118
      7        1           0.000002966   -0.000000835   -0.000002429
      8        8          -0.000000748   -0.000002434    0.000000575
      9        1          -0.000001736    0.000004338   -0.000000696
 -------------------------------------------------------------------
 Cartesian Forces:  Max     0.000004338 RMS     0.000001981
 Force constants in Cartesian coordinates: 
                1             2             3             4             5 
      1  0.500213D+00
      2 -0.178540D-01  0.524936D+00
      3 -0.167977D-01 -0.110500D-01  0.526283D+00
      4 -0.200325D+00 -0.609540D-01 -0.526604D-01  0.904658D+00
      5 -0.730249D-01 -0.964901D-01 -0.259281D-01  0.455171D+00  0.337734D+00
      6 -0.622780D-01 -0.255705D-01 -0.852782D-01  0.377171D+00  0.206598D+00
      7 -0.630343D-01  0.420772D-01  0.471823D-01  0.548742D-02 -0.229073D-01
      8  0.435441D-01 -0.153149D+00 -0.119412D+00 -0.159766D-02 -0.125476D-01
      9  0.492843D-01 -0.119146D+00 -0.180050D+00 -0.376529D-02 -0.982148D-02
     10 -0.141193D+00  0.109716D+00 -0.604416D-01 -0.286792D-01  0.144521D-01
     11  0.107920D+00 -0.170952D+00  0.691850D-01 -0.138364D-01  0.136114D-01
     12 -0.600451D-01  0.702863D-01 -0.846622D-01 -0.126458D-01  0.475235D-02
     13 -0.106266D+00 -0.609443D-01  0.911030D-01 -0.243028D-01 -0.188095D-01
     14 -0.606709D-01 -0.109314D+00  0.929468D-01 -0.118749D-01 -0.115668D-01
     15  0.894030D-01  0.918681D-01 -0.182457D+00 -0.885432D-02 -0.969633D-02
     16  0.828768D-02 -0.973684D-02 -0.679026D-02 -0.655291D+00 -0.357227D+00
     17 -0.575011D-03  0.456420D-02 -0.557740D-02 -0.364641D+00 -0.228450D+00
     18 -0.208689D-03 -0.531984D-02  0.551622D-02 -0.298125D+00 -0.165578D+00
     19  0.193810D-02 -0.194228D-02 -0.227213D-03 -0.223461D-02 -0.802144D-03
     20 -0.952457D-03  0.136971D-02  0.127959D-02  0.132310D-02 -0.129708D-02
     21  0.122940D-02 -0.108829D-02 -0.118065D-02 -0.503927D-03 -0.103901D-02
     22  0.701538D-03 -0.551846D-03 -0.206001D-02  0.568172D-03  0.260359D-02
     23  0.122334D-02 -0.299936D-03 -0.118330D-02 -0.366427D-02 -0.218004D-02
     24 -0.109742D-03  0.200848D-03  0.109940D-02 -0.140544D-02  0.169158D-03
     25 -0.321159D-03  0.189784D-03  0.691980D-03  0.119317D-03  0.544391D-03
     26  0.390206D-03 -0.664701D-03 -0.260832D-03  0.743254D-04  0.118706D-02
     27 -0.477390D-03 -0.180644D-03  0.728701D-03  0.788528D-03  0.542945D-03
                6             7             8             9            10 
      6  0.253744D+00
      7 -0.251811D-01  0.731937D-01
      8 -0.113873D-01 -0.435341D-01  0.169290D+00
      9 -0.115657D-01 -0.497471D-01  0.135133D+00  0.198563D+00
     10 -0.149022D-01 -0.589318D-02  0.645405D-02 -0.289913D-02  0.161411D+00
     11 -0.894507D-02  0.131639D-01 -0.163128D-01  0.975092D-02 -0.117778D+00
     12 -0.953971D-02  0.167391D-01 -0.178098D-01  0.105045D-01  0.708097D-01
     13  0.171822D-01 -0.496621D-02 -0.386346D-02  0.674660D-02  0.117168D-01
     14  0.672523D-02  0.120854D-01  0.121074D-01 -0.166014D-01 -0.120666D-01
     15  0.131632D-01  0.114051D-01  0.134455D-01 -0.186895D-01  0.655718D-02
     16 -0.293755D+00 -0.375044D-02 -0.608839D-03  0.606728D-03  0.247369D-02
     17 -0.166255D+00 -0.814952D-03  0.580680D-03  0.913396D-03 -0.778127D-03
     18 -0.160320D+00 -0.195006D-03  0.151046D-03  0.131802D-02  0.667816D-03
     19 -0.866385D-04 -0.519262D-03 -0.121044D-03 -0.332751D-03  0.534503D-03
     20 -0.195372D-02  0.798700D-03  0.299976D-03  0.154051D-03  0.214315D-03
     21  0.331300D-02 -0.486915D-03  0.499399D-04 -0.253737D-03  0.121041D-03
     22  0.326850D-02 -0.810560D-03 -0.301757D-03 -0.727653D-04 -0.481081D-03
     23 -0.681380D-03 -0.599646D-03 -0.150447D-03 -0.330068D-03 -0.282646D-03
     24 -0.250068D-02  0.229426D-04 -0.241799D-03  0.448984D-04 -0.175438D-03
     25 -0.141930D-02  0.292770D-03  0.286680D-04  0.179393D-03  0.111078D-03
     26  0.146936D-02 -0.269221D-03 -0.118590D-03 -0.519307D-04  0.687695D-04
     27 -0.101610D-02  0.260660D-03  0.715691D-04  0.128360D-03  0.262640D-03
               11            12            13            14            15 
     11  0.187735D+00
     12 -0.756159D-01  0.924377D-01
     13  0.105545D-01 -0.160726D-01  0.122321D+00
     14 -0.126050D-01  0.179676D-01  0.722365D-01  0.120063D+00
     15  0.535104D-02 -0.105253D-01 -0.975438D-01 -0.100987D+00  0.199884D+00
     16 -0.266790D-03  0.109395D-02  0.168073D-02  0.404056D-03 -0.988274D-03
     17 -0.147850D-02  0.520889D-03  0.770079D-03  0.118789D-02 -0.893706D-04
     18  0.610517D-04  0.162153D-02 -0.119556D-02 -0.192776D-05 -0.127184D-02
     19  0.367650D-03  0.783619D-05  0.544049D-05 -0.135094D-04 -0.132903D-04
     20 -0.313288D-04 -0.280782D-04  0.276752D-03  0.850646D-04 -0.128654D-04
     21  0.200497D-03  0.143865D-03  0.853066D-04  0.421025D-03  0.241826D-03
     22 -0.146605D-03  0.599548D-04 -0.233242D-03  0.469066D-05  0.130197D-03
     23 -0.234218D-04 -0.171237D-03 -0.562415D-04  0.988833D-04  0.160772D-03
     24 -0.869807D-04 -0.114232D-03 -0.344703D-03 -0.455308D-03 -0.270890D-03
     25  0.223046D-04  0.530290D-04  0.446939D-04 -0.104744D-03 -0.958198D-04
     26  0.572216D-04  0.977905D-04 -0.164375D-03 -0.568032D-04 -0.398979D-04
     27  0.993630D-04  0.133827D-03  0.395719D-04 -0.150084D-04 -0.751412D-04
               16            17            18            19            20 
     16  0.678025D+00
     17  0.379540D+00  0.227198D+00
     18  0.313460D+00  0.173823D+00  0.164042D+00
     19  0.101046D-01  0.294902D-01  0.134898D-01  0.230796D+00
     20 -0.965464D-02 -0.116346D-01 -0.389257D-02 -0.135725D+00  0.938957D-01
     21  0.106008D-03  0.923676D-02 -0.538393D-02  0.307987D-01 -0.514425D-01
     22 -0.414322D-01 -0.418924D-01 -0.275735D-01 -0.239741D+00  0.113747D+00
     23 -0.329331D-02  0.614302D-02  0.604224D-02  0.120841D+00 -0.683690D-01
     24 -0.108821D-01 -0.109702D-01 -0.284366D-02 -0.550392D-01  0.500486D-01
     25 -0.977238D-04 -0.109856D-02 -0.319868D-03 -0.884401D-03  0.299721D-01
     26  0.843681D-03  0.188944D-02 -0.528546D-02 -0.120954D-01 -0.143184D-01
     27 -0.285091D-02 -0.160237D-02 -0.267840D-02  0.114028D-01  0.584749D-02
               21            22            23            24            25 
     21  0.397426D-01
     22  0.705512D-03  0.330345D+00
     23  0.216028D-01 -0.608515D-01  0.234749D+00
     24 -0.304371D-01 -0.345958D-02 -0.226598D+00  0.277886D+00
     25 -0.320551D-01 -0.489173D-01 -0.533172D-01  0.713933D-01  0.496527D-01
     26  0.220588D-01 -0.126112D-01 -0.169968D+00  0.187933D+00  0.237632D-01
     27 -0.618592D-02  0.290017D-01  0.201158D+00 -0.242864D+00 -0.384276D-01
               26            27 
     26  0.181993D+00
     27 -0.205921D+00  0.251828D+00
 Leave Link  716 at Tue Jan  5 12:34:17 2021, MaxMem=    33554432 cpu:         0.0
 (Enter /apps/applications/gaussian/G09.D01/2/default/g09/l9999.exe)
 1\1\GINC-DC1S0B3B\Freq\UB3LYP\3-21G\C3H5O1(2)\CHMRSH\05-Jan-2021\0\\#P
  b3lyp/3-21G scf=qc opt(calcall, ts, noeigentest, cartesian,maxcycle=1
 00) NoSymm\\Gaussian input prepared by ASE\\0,2\C,-9.0562414103,0.6792
 190262,1.607331269\C,-7.8533920558,1.3154365626,2.1475593199\H,-8.7918
 335431,-0.0316315979,0.8146287081\H,-9.7346906031,1.4266721981,1.17827
 21535\H,-9.5987599043,0.1330944238,2.3883952501\C,-6.8888902024,1.8960
 41784,2.6138085617\H,-5.874719718,3.0925473263,3.3029393555\O,-4.94265
 55551,2.7112091292,3.4950060065\H,-5.1044961299,2.0854497031,4.2602248
 195\\Version=ES64L-G09RevD.01\HF=-191.2994614\S2=0.764804\S2-1=0.\S2A=
 0.750161\RMSD=0.000e+00\RMSF=1.981e-06\ZeroPoint=0.0658308\Thermal=0.0
 725652\Dipole=-0.4923081,-0.2057153,0.5145894\DipoleDeriv=0.1576922,0.
 0524137,0.0615198,-0.0342743,0.0207608,-0.0487004,-0.0482251,-0.053180
 7,-0.0104811,0.0346925,0.1624416,0.0931601,0.2149096,0.1752801,0.16409
 61,0.1476658,0.1462133,0.1050823,0.0026221,-0.0280995,-0.0261736,-0.02
 44264,-0.0026829,-0.1149224,0.0023297,-0.0999492,-0.0052647,-0.0318051
 ,0.0419062,-0.0811889,0.056244,0.0068532,0.0419193,-0.0696279,0.044212
 8,0.0747371,-0.0141752,-0.0858203,0.0324867,-0.0933085,0.0338724,0.055
 1625,0.0473073,0.0590914,0.0019731,-0.0370991,0.007571,0.0871317,-0.03
 93752,-0.4894369,-0.0756655,0.0579307,-0.0327741,-0.3268348,0.0510959,
 0.061401,-0.0102466,0.2356201,0.4873537,0.1866741,-0.0081539,0.018775,
 0.2446315,-0.4940688,-0.1761072,-0.3007035,-0.1832342,-0.4309939,-0.26
 0321,-0.2903203,-0.2529877,-0.3482349,0.3310455,-0.0357065,0.1440145,-
 0.1321551,0.1989934,0.0517573,0.1610938,0.1705994,0.2643914\Polar=55.5
 586214,19.9275449,32.8414331,20.4827719,9.7976141,32.4769761\PG=C01 [X
 (C3H5O1)]\NImag=1\\0.50021261,-0.01785398,0.52493607,-0.01679771,-0.01
 104998,0.52628320,-0.20032521,-0.06095405,-0.05266040,0.90465788,-0.07
 302491,-0.09649007,-0.02592812,0.45517087,0.33773361,-0.06227800,-0.02
 557049,-0.08527816,0.37717118,0.20659804,0.25374401,-0.06303427,0.0420
 7722,0.04718227,0.00548742,-0.02290733,-0.02518108,0.07319373,0.043544
 12,-0.15314877,-0.11941178,-0.00159766,-0.01254758,-0.01138728,-0.0435
 3409,0.16929018,0.04928431,-0.11914600,-0.18004989,-0.00376529,-0.0098
 2148,-0.01156567,-0.04974709,0.13513254,0.19856306,-0.14119338,0.10971
 627,-0.06044160,-0.02867916,0.01445212,-0.01490217,-0.00589318,0.00645
 405,-0.00289913,0.16141077,0.10791958,-0.17095240,0.06918503,-0.013836
 40,0.01361139,-0.00894507,0.01316389,-0.01631285,0.00975092,-0.1177781
 6,0.18773488,-0.06004514,0.07028629,-0.08466218,-0.01264576,0.00475235
 ,-0.00953971,0.01673907,-0.01780978,0.01050448,0.07080967,-0.07561585,
 0.09243772,-0.10626591,-0.06094427,0.09110296,-0.02430283,-0.01880950,
 0.01718223,-0.00496621,-0.00386346,0.00674660,0.01171675,0.01055453,-0
 .01607261,0.12232057,-0.06067088,-0.10931409,0.09294679,-0.01187493,-0
 .01156684,0.00672523,0.01208543,0.01210739,-0.01660143,-0.01206660,-0.
 01260498,0.01796763,0.07223649,0.12006348,0.08940297,0.09186811,-0.182
 45664,-0.00885432,-0.00969633,0.01316325,0.01140514,0.01344555,-0.0186
 8952,0.00655718,0.00535104,-0.01052530,-0.09754378,-0.10098700,0.19988
 425,0.00828768,-0.00973684,-0.00679026,-0.65529098,-0.35722708,-0.2937
 5473,-0.00375044,-0.00060884,0.00060673,0.00247369,-0.00026679,0.00109
 395,0.00168073,0.00040406,-0.00098827,0.67802466,-0.00057501,0.0045642
 0,-0.00557740,-0.36464100,-0.22845044,-0.16625468,-0.00081495,0.000580
 68,0.00091340,-0.00077813,-0.00147850,0.00052089,0.00077008,0.00118789
 ,-0.00008937,0.37953977,0.22719835,-0.00020869,-0.00531984,0.00551622,
 -0.29812457,-0.16557756,-0.16031993,-0.00019501,0.00015105,0.00131802,
 0.00066782,0.00006105,0.00162153,-0.00119556,-0.00000193,-0.00127184,0
 .31345962,0.17382302,0.16404200,0.00193810,-0.00194228,-0.00022721,-0.
 00223461,-0.00080214,-0.00008664,-0.00051926,-0.00012104,-0.00033275,0
 .00053450,0.00036765,0.00000784,0.00000544,-0.00001351,-0.00001329,0.0
 1010458,0.02949023,0.01348976,0.23079640,-0.00095246,0.00136971,0.0012
 7959,0.00132310,-0.00129708,-0.00195372,0.00079870,0.00029998,0.000154
 05,0.00021431,-0.00003133,-0.00002808,0.00027675,0.00008506,-0.0000128
 7,-0.00965464,-0.01163464,-0.00389257,-0.13572493,0.09389571,0.0012294
 0,-0.00108829,-0.00118065,-0.00050393,-0.00103901,0.00331300,-0.000486
 92,0.00004994,-0.00025374,0.00012104,0.00020050,0.00014387,0.00008531,
 0.00042103,0.00024183,0.00010601,0.00923676,-0.00538393,0.03079868,-0.
 05144249,0.03974261,0.00070154,-0.00055185,-0.00206001,0.00056817,0.00
 260359,0.00326850,-0.00081056,-0.00030176,-0.00007277,-0.00048108,-0.0
 0014661,0.00005995,-0.00023324,0.00000469,0.00013020,-0.04143220,-0.04
 189242,-0.02757350,-0.23974074,0.11374705,0.00070551,0.33034542,0.0012
 2334,-0.00029994,-0.00118330,-0.00366427,-0.00218004,-0.00068138,-0.00
 059965,-0.00015045,-0.00033007,-0.00028265,-0.00002342,-0.00017124,-0.
 00005624,0.00009888,0.00016077,-0.00329331,0.00614302,0.00604224,0.120
 84148,-0.06836901,0.02160281,-0.06085152,0.23474925,-0.00010974,0.0002
 0085,0.00109940,-0.00140544,0.00016916,-0.00250068,0.00002294,-0.00024
 180,0.00004490,-0.00017544,-0.00008698,-0.00011423,-0.00034470,-0.0004
 5531,-0.00027089,-0.01088213,-0.01097023,-0.00284366,-0.05503921,0.050
 04861,-0.03043706,-0.00345958,-0.22659775,0.27788599,-0.00032116,0.000
 18978,0.00069198,0.00011932,0.00054439,-0.00141930,0.00029277,0.000028
 67,0.00017939,0.00011108,0.00002230,0.00005303,0.00004469,-0.00010474,
 -0.00009582,-0.00009772,-0.00109856,-0.00031987,-0.00088440,0.02997211
 ,-0.03205511,-0.04891730,-0.05331718,0.07139331,0.04965272,0.00039021,
 -0.00066470,-0.00026083,0.00007433,0.00118706,0.00146936,-0.00026922,-
 0.00011859,-0.00005193,0.00006877,0.00005722,0.00009779,-0.00016437,-0
 .00005680,-0.00003990,0.00084368,0.00188944,-0.00528546,-0.01209544,-0
 .01431840,0.02205876,-0.01261118,-0.16996830,0.18793345,0.02376323,0.1
 8199307,-0.00047739,-0.00018064,0.00072870,0.00078853,0.00054294,-0.00
 101610,0.00026066,0.00007157,0.00012836,0.00026264,0.00009936,0.000133
 83,0.00003957,-0.00001501,-0.00007514,-0.00285091,-0.00160237,-0.00267
 840,0.01140282,0.00584749,-0.00618592,0.02900170,0.20115791,-0.2428637
 7,-0.03842762,-0.20592124,0.25182846\\0.00000096,0.00000016,-0.0000008
 4,-0.00000040,0.00000030,-0.00000042,0.00000053,0.00000272,-0.00000400
 ,-0.00000226,0.00000101,0.00000271,0.00000214,-0.00000379,-0.00000112,
 -0.00000050,0.00000066,0.00000112,-0.00000297,0.00000083,0.00000243,0.
 00000075,0.00000243,-0.00000058,0.00000174,-0.00000434,0.00000070\\\@


    WHAT WE HAVE LEARNED
 IS LIKE A HANDFUL OF EARTH;
  WHAT WE HAVE YET TO LEARN
   IS LIKE THE WHOLE WORLD.

         -- AVVAYIAR
 Job cpu time:       0 days  0 hours 17 minutes 16.7 seconds.
 File lengths (MBytes):  RWF=      9 Int=      0 D2E=      0 Chk=      1 Scr=      1
 Normal termination of Gaussian 09 at Tue Jan  5 12:34:17 2021.
