22
Properties=species:S:1:pos:R:3 energy=-1891.950682218132 pbc="F F F"
C        5.65052500      -4.49332000       0.95675000
C        6.72986500      -4.37290000      -0.12998100
C        6.62338600      -5.50204500      -1.10508200
C        5.96605200      -5.42754500      -2.26640800
C        4.63065700      -3.38849900       2.99094800
C        5.78313200      -3.39255000       2.01355300
H        4.64004400      -4.45373600       0.50010800
H        5.70627900      -5.48790600       1.44206200
H        6.64572900      -3.39365500      -0.64259500
H        7.73916100      -4.38003500       0.33131800
H        7.12167700      -6.42848300      -0.81804900
H        5.77756800      -8.21550500      -2.47213900
C        5.22662100      -4.29705100      -2.89182400
H        4.77388600      -2.74105500       3.87283200
H        6.74141500      -3.50086800       2.56072600
H        5.83716800      -2.39631300       1.52530400
H        4.42113900      -3.93895000      -2.23345200
H        4.76453200      -4.58759200      -3.85031800
H        5.89964300      -3.45231400      -3.10112500
O        3.61472800      -4.02741800       2.83807900
O        6.54777000      -7.62969300      -2.74289800
O        5.83626700      -6.48269200      -3.18834000
22
Properties=species:S:1:pos:R:3 energy=-1891.9043509032908 pbc="F F F"
C        5.64985618      -4.48545291       0.94097061
C        6.73908500      -4.38014314      -0.13981395
C        6.62290290      -5.50857907      -1.11938975
C        5.95724292      -5.43081999      -2.27871636
C        4.64203848      -3.42204063       3.01036227
C        5.77607212      -3.38864553       2.01255059
H        4.64707058      -4.41760472       0.46569058
H        5.68156535      -5.49131040       1.41283608
H        6.66227075      -3.39974893      -0.65541917
H        7.74533196      -4.38735128       0.32635264
H        7.11226765      -6.46095856      -0.80644760
H        5.78289731      -8.17730161      -2.47156458
C        5.22679506      -4.29308214      -2.89865198
H        4.78367521      -2.76818264       3.88889038
H        6.74329577      -3.45209054       2.54630366
H        5.77422421      -2.39085814       1.54210477
H        4.44435743      -3.90953143      -2.22603463
H        4.73620597      -4.58903645      -3.84162133
H        5.91255129      -3.46518832      -3.13558860
O        3.63785967      -4.08499012       2.87201581
O        6.57694403      -7.59574512      -2.66941147
O        5.82273415      -6.49146333      -3.18594899
22
Properties=species:S:1:pos:R:3 energy=-1891.761062284341 pbc="F F F"
C        5.64919866      -4.47672322       0.92488401
C        6.74797598      -4.38666769      -0.14955178
C        6.62218931      -5.51450916      -1.13296117
C        5.94865130      -5.43406676      -2.29039852
C        4.65453952      -3.45589670       3.02906620
C        5.76838725      -3.38557968       2.01152861
H        4.65507105      -4.38000366       0.43234195
H        5.65619010      -5.49256701       1.38235865
H        6.67871354      -3.40550738      -0.66828197
H        7.75105783      -4.39420836       0.32157523
H        7.10278677      -6.49219902      -0.79300738
H        5.78779957      -8.13974559      -2.47055499
C        5.22727358      -4.28944458      -2.90561361
H        4.79433534      -2.79586754       3.90441143
H        6.74229446      -3.40402941       2.53211905
H        5.71111618      -2.38868187       1.55857785
H        4.46911712      -3.88057543      -2.21996516
H        4.70845158      -4.58957408      -3.83208428
H        5.92444519      -3.47924417      -3.17039162
O        3.66352455      -4.14282897       2.90495580
O        6.60492322      -7.56199755      -2.59642084
O        5.80920191      -6.50020714      -3.18311845
22
Properties=species:S:1:pos:R:3 energy=-1891.51468666106 pbc="F F F"
C        5.64854387      -4.46715479       0.90852617
C        6.75653043      -4.39248346      -0.15918259
C        6.62124366      -5.51984705      -1.14579866
C        5.94027569      -5.43728072      -2.30145946
C        4.66812173      -3.49002067       3.04704622
C        5.76009393      -3.38334693       2.01047793
H        4.66401516      -4.34101746       0.40009370
H        5.63020126      -5.49170326       1.35070473
H        6.69503717      -3.41093075      -0.68116715
H        7.75633978      -4.40060805       0.31698916
H        7.09324261      -6.52219694      -0.77780016
H        5.79228318      -8.10285422      -2.46911621
C        5.22804987      -4.28613214      -2.91269842
H        4.80583885      -2.82406623       3.91938082
H        6.73846803      -3.35676008       2.51817494
H        5.64794086      -2.38971620       1.57469340
H        4.49535656      -3.85211878      -2.21523090
H        4.68129932      -4.58921810      -3.82173696
H        5.93532425      -3.49444008      -3.20547840
O        3.69164845      -4.20084793       2.93686952
O        6.63170343      -7.52846801      -2.52395999
O        5.79568591      -6.50891319      -3.17985867
22
Properties=species:S:1:pos:R:3 energy=-1891.1611051368454 pbc="F F F"
C        5.64788325      -4.45677143       0.89193306
C        6.76474088      -4.39760026      -0.16869451
C        6.62006437      -5.52460450      -1.15790464
C        5.93211463      -5.44045725      -2.31190419
C        4.68274673      -3.52436598       3.06428874
C        5.75120867      -3.38194179       2.00938943
H        4.67387269      -4.30073073       0.36897743
H        5.60364682      -5.48874655       1.31794931
H        6.71122148      -3.41601940      -0.69405848
H        7.76117896      -4.40655216       0.31259786
H        7.08364345      -6.55094486      -0.76089775
H        5.79635653      -8.06664478      -2.46725422
C        5.22911724      -4.28313864      -2.91989593
H        4.81815819      -2.85273519       3.93378422
H        6.73187345      -3.31035798       2.50447414
H        5.58479520      -2.39389314       1.59042160
H        4.52301425      -3.82419826      -2.21181920
H        4.65477966      -4.58798169      -3.81060946
H        5.94518800      -3.51073459      -3.24079326
O        3.72215720      -4.25896036       2.96772757
O        6.65728056      -7.49517422      -2.45206278
O        5.78220178      -6.51757125      -3.17617992
22
Properties=species:S:1:pos:R:3 energy=-1890.699612189785 pbc="F F F"
C        5.64720826      -4.44559700       0.87514063
C        6.77259980      -4.40202791      -0.17807566
C        6.61864988      -5.52879328      -1.16928150
C        5.92416667      -5.44359176      -2.32173769
C        4.69837614      -3.55888609       3.08078018
C        5.74174802      -3.38135873       2.00825400
H        4.68461342      -4.25922810       0.33902473
H        5.57657477      -5.48372430       1.28416739
H        6.72724628      -3.42077375      -0.70693972
H        7.76557655      -4.41204250       0.30840471
H        7.07399754      -6.57843532      -0.74237198
H        5.80002801      -8.03113455      -2.46497497
C        5.23046901      -4.28045792      -2.92719568
H        4.83126584      -2.88183095       3.94760730
H        6.72256770      -3.26489859       2.49101944
H        5.52177614      -2.40114469       1.60573262
H        4.55202870      -3.79685064      -2.20971735
H        4.62892311      -4.58587807      -3.79873186
H        5.95403597      -3.52808624      -3.27628056
O        3.75497659      -4.31707961       2.99750052
O        6.68165047      -7.46213387      -2.38076308
O        5.76876513      -6.52617110      -3.17209248
22
Properties=species:S:1:pos:R:3 energy=-1890.1337420839884 pbc="F F F"
C        5.64651032      -4.43365533       0.85818485
C        6.78009972      -4.40577622      -0.18731417
C        6.61699863      -5.53242517      -1.17993164
C        5.91643036      -5.44667966      -2.33096496
C        4.71497159      -3.59353443       3.09650697
C        5.73172849      -3.38159225       2.00706252
H        4.69620712      -4.21659421       0.31026719
H        5.54903311      -5.47666394       1.24943399
H        6.74309139      -3.42519416      -0.71979463
H        7.76953371      -4.41708091       0.30441313
H        7.06431314      -6.60466089      -0.72229465
H        5.80330601      -7.99634081      -2.46228445
C        5.23209849      -4.27808380      -2.93458718
H        4.84513423      -2.91131000       3.96083574
H        6.71060775      -3.22045734       2.47781363
H        5.45898062      -2.41140287       1.62059665
H        4.58233841      -3.77011271      -2.20891269
H        4.60376015      -4.58292043      -3.78613426
H        5.96186770      -3.54645358      -3.31188461
O        3.79003245      -4.37511906       3.02615895
O        6.70480905      -7.42936470      -2.31009474
O        5.75539160      -6.53470252      -3.16760663
22
Properties=species:S:1:pos:R:3 energy=-1889.4719424210086 pbc="F F F"
C        5.64578088      -4.42097027       0.84110169
C        6.78723313      -4.40885502      -0.19639815
C        6.61510904      -5.53551194      -1.18985746
C        5.90890425      -5.44971634      -2.33959099
C        4.73249469      -3.62826447       3.11145552
C        5.72116662      -3.38263684       2.00580586
H        4.70862355      -4.17291367       0.28273641
H        5.52106982      -5.46759288       1.21382410
H        6.75873663      -3.42928104      -0.73260696
H        7.77305159      -4.42166919       0.30062652
H        7.05459851      -6.62961410      -0.70073760
H        5.80619892      -7.96228084      -2.45918863
C        5.23399899      -4.27601010      -2.94205998
H        4.85973584      -2.94112885       3.97345520
H        6.69605056      -3.17710970       2.46485952
H        5.39650559      -2.42459969       1.63498385
H        4.61388187      -3.74402123      -2.20939254
H        4.57932127      -4.57912197      -3.77284676
H        5.96868271      -3.56579515      -3.34754976
O        3.82725058      -4.43299205       3.05367344
O        6.72675217      -7.39688442      -2.24009164
O        5.74209681      -6.54315526      -3.16273264
22
Properties=species:S:1:pos:R:3 energy=-1888.7291685496589 pbc="F F F"
C        5.64501138      -4.40756565       0.82392711
C        6.79399253      -4.41127410      -0.20531572
C        6.61297954      -5.53806535      -1.19906137
C        5.90158688      -5.45269720      -2.34762078
C        4.75090706      -3.66302964       3.12561224
C        5.71007893      -3.38448698       2.00447492
H        4.72183250      -4.12827113       0.25646399
H        5.49273290      -5.45653853       1.17741271
H        6.77416183      -3.43303477      -0.74536048
H        7.77613137      -4.42580915       0.29704828
H        7.04486191      -6.65328750      -0.67777263
H        5.80871514      -7.92897191      -2.45569347
C        5.23616381      -4.27423065      -2.94960359
H        4.87504311      -2.97124402       3.98545136
H        6.67895310      -3.13493112       2.45215988
H        5.33444800      -2.44066716       1.64886440
H        4.64659758      -3.71861299      -2.21114421
H        4.55563696      -4.57449588      -3.75889944
H        5.97448054      -3.58606947      -3.38322035
O        3.86655682      -4.49061195       3.08001456
O        6.74747573      -7.36471073      -2.17078763
O        5.72889638      -6.55151911      -3.15748079
22
Properties=species:S:1:pos:R:3 energy=-1887.9335384663666 pbc="F F F"
C        5.64419326      -4.39346531       0.80669706
C        6.80037043      -4.41304330      -0.21405500
C        6.61060857      -5.54009717      -1.20754577
C        5.89447681      -5.45561765      -2.35505933
C        4.77017033      -3.69778339       3.13896357
C        5.69848196      -3.38713717       2.00306056
H        4.73580372      -4.08275120       0.23148152
H        5.46407034      -5.44352832       1.14027485
H        6.78934680      -3.43645572      -0.75803895
H        7.77877421      -4.42950262       0.29368183
H        7.03511160      -6.67567363      -0.65347157
H        5.81086306      -7.89643132      -2.45180496
C        5.23858628      -4.27273928      -2.95720755
H        4.89102851      -3.00161200       3.99680989
H        6.65937234      -3.09399706       2.43971753
H        5.27290479      -2.45953728       1.66220849
H        4.68042405      -3.69392477      -2.21415503
H        4.53273771      -4.56905537      -3.74432240
H        5.97926072      -3.60723510      -3.41884070
O        3.90787696      -4.54789213       3.10515290
O        6.76697559      -7.33286135      -2.10221659
O        5.71580594      -6.55978383      -3.15186136
22
Properties=species:S:1:pos:R:3 energy=-1887.1638091729171 pbc="F F F"
C        5.64331796      -4.37869309       0.78944753
C        6.80635934      -4.41417241      -0.22260411
C        6.60799457      -5.54161917      -1.21531306
C        5.88757258      -5.45847308      -2.36191162
C        4.79024612      -3.73247918       3.15149591
C        5.68639224      -3.39058189       2.00155368
H        4.75050700      -4.03643851       0.20782059
H        5.43513015      -5.42858966       1.10248550
H        6.80427136      -3.43954431      -0.77062613
H        7.78098127      -4.43275141       0.29053057
H        7.02535585      -6.69676506      -0.62790623
H        5.81265107      -7.86467634      -2.44752906
C        5.24125970      -4.27152982      -2.96486138
H        4.90766449      -3.03218931       4.00751645
H        6.63736525      -3.05438296       2.42753525
H        5.21197290      -2.48114208       1.67498627
H        4.71529978      -3.66999334      -2.21841232
H        4.51065400      -4.56281364      -3.72914573
H        5.98302279      -3.62925058      -3.45435515
O        3.95113683      -4.60474595       3.12905903
O        6.78524763      -7.30135401      -2.03441237
O        5.70284112      -6.56793921      -3.14588462
22
Properties=species:S:1:pos:R:3 energy=-1886.7418351482072 pbc="F F F"
C        5.64237693      -4.36327283       0.77221446
C        6.81195174      -4.41467127      -0.23095119
C        6.60513595      -5.54264313      -1.22236564
C        5.88087275      -5.46125890      -2.36818265
C        4.81109604      -3.76707045       3.16319568
C        5.67382628      -3.39481564       1.99994515
H        4.76591211      -3.98941769       0.18551281
H        5.40596030      -5.41174997       1.06411967
H        6.81891534      -3.44230090      -0.78310578
H        7.78275371      -4.43555734       0.28759789
H        7.01560290      -6.71655432      -0.60114843
H        5.81408756      -7.83372425      -2.44287174
C        5.24417739      -4.27059609      -2.97255461
H        4.92492350      -3.06293245       4.01755674
H        6.61298881      -3.01616428       2.41561583
H        5.15174930      -2.50541355       1.68716794
H        4.75116326      -3.64685547      -2.22390340
H        4.48941633      -4.55578388      -3.71339953
H        5.98576628      -3.65207444      -3.48970804
O        3.99626223      -4.66108676       3.15170353
O        6.80228773      -7.27020640      -1.96740884
O        5.69001753      -6.57597501      -3.13956085
22
Properties=species:S:1:pos:R:3 energy=-1887.0037999324807 pbc="F F F"
C        5.64136160      -4.34722836       0.75503382
C        6.81714016      -4.41454967      -0.23908433
C        6.60203116      -5.54318081      -1.22870591
C        5.87437585      -5.46397051      -2.37387741
C        4.83268172      -3.80151065       3.17404931
C        5.66080063      -3.39983290       1.99822585
H        4.78198881      -3.94177337       0.16458976
H        5.37660880      -5.39303666       1.02525237
H        6.83325855      -3.44472589      -0.79546166
H        7.78409270      -4.43792221       0.28488722
H        7.00586104      -6.73503395      -0.57326999
H        5.81518093      -7.80359233      -2.43783899
C        5.24733266      -4.26993192      -2.98027677
H        4.94277802      -3.09379792       4.02691640
H        6.58629998      -2.97941648       2.40396208
H        5.09233091      -2.53228371       1.69872365
H        4.78795300      -3.62454796      -2.23061559
H        4.46905519      -4.54797929      -3.69711388
H        5.98749073      -3.67566522      -3.52484369
O        4.04317899      -4.71682793       3.17305697
O        6.81809178      -7.23943626      -1.90123987
O        5.67735081      -6.58388100      -3.13290033
22
Properties=species:S:1:pos:R:3 energy=-1887.5914868581078 pbc="F F F"
C        5.64026342      -4.33058354       0.73794158
C        6.82191708      -4.41381744      -0.24699168
C        6.59867863      -5.54324398      -1.23433628
C        5.86808044      -5.46660330      -2.37900090
C        4.85496477      -3.83575323       3.18404321
C        5.64733181      -3.40562817       1.99638667
H        4.79870689      -3.89359017       0.14508304
H        5.34712363      -5.37247716       0.98595859
H        6.84728081      -3.44681967      -0.80767753
H        7.78499941      -4.43984786       0.28240194
H        6.99613850      -6.75219652      -0.54434273
H        5.81593956      -7.77429786      -2.43243676
C        5.25071881      -4.26953114      -2.98801739
H        4.96120048      -3.12474224       4.03558113
H        6.55735573      -2.94421501       2.39257678
H        5.03381468      -2.56168457       1.70962360
H        4.82560749      -3.60310756      -2.23853622
H        4.44960106      -4.53941307      -3.68031888
H        5.98819565      -3.69998147      -3.55970646
O        4.09181291      -4.77188282       3.19308995
O        6.83265565      -7.20906128      -1.83593932
O        5.66485659      -6.59164695      -3.12591333
22
Properties=species:S:1:pos:R:3 energy=-1888.2679620564852 pbc="F F F"
C        5.63907383      -4.31336219       0.72097369
C        6.82627502      -4.41248439      -0.25466133
C        6.59507678      -5.54284441      -1.23925915
C        5.86198507      -5.46915269      -2.38355811
C        4.87790683      -3.86975164       3.19316380
C        5.63343635      -3.41219593       1.99441848
H        4.81603610      -3.84495272       0.12702424
H        5.31755279      -5.35009888       0.94631334
H        6.86096195      -3.44858262      -0.81973715
H        7.78547499      -4.44133609       0.28014548
H        6.98644356      -6.76803456      -0.51443846
H        5.81637185      -7.74585812      -2.42667104
C        5.25432916      -4.26938756      -2.99576600
H        4.98016335      -3.15572191       4.04353658
H        6.52621303      -2.91063533       2.38146274
H        4.97629757      -2.59354814       1.71983796
H        4.86406524      -3.58257107      -2.24765259
H        4.43108443      -4.53009842      -3.66304462
H        5.98788060      -3.72498173      -3.59424067
O        4.14208981      -4.82616479       3.21177302
O        6.84597522      -7.17909919      -1.77154106
O        5.65255047      -6.59926265      -3.11861013
22
Properties=species:S:1:pos:R:3 energy=-1888.9559410689544 pbc="F F F"
C        5.63778426      -4.29558816       0.70416613
C        6.83020647      -4.41056034      -0.26208143
C        6.59122406      -5.54199388      -1.24347691
C        5.85608828      -5.47161406      -2.38755404
C        4.90146950      -3.90345932       3.20139750
C        5.61913077      -3.41953067       1.99231217
H        4.83394623      -3.79594566       0.11044497
H        5.28794428      -5.32592923       0.90639161
H        6.87428178      -3.45001513      -0.83162429
H        7.78552062      -4.44238872       0.27812122
H        6.97678447      -6.78254062      -0.48362901
H        5.81648620      -7.71829039      -2.42054779
C        5.25815702      -4.26949503      -3.00351211
H        4.99963909      -3.18669344       4.05076843
H        6.49292885      -2.87875288       2.37062273
H        4.91987651      -2.62780643       1.72933689
H        4.90326475      -3.56297525      -2.25795204
H        4.41353580      -4.52004854      -3.64532120
H        5.98654510      -3.75062453      -3.62839065
O        4.19393551      -4.87958721       3.22907678
O        6.85804637      -7.14956770      -1.70807894
O        5.64044810      -6.60671785      -3.11100102
22
Properties=species:S:1:pos:R:3 energy=-1889.6228338292108 pbc="F F F"
C        5.63638616      -4.27728528       0.68755486
C        6.83370394      -4.40805509      -0.26924008
C        6.58711888      -5.54070414      -1.24699198
C        5.85038862      -5.47398282      -2.39099368
C        4.92561441      -3.93682973       3.20873073
C        5.60443162      -3.42762688       1.99005861
H        4.85240704      -3.74665360       0.09537681
H        5.25834608      -5.29999564       0.86626842
H        6.88722013      -3.45111759      -0.84332270
H        7.78513744      -4.44300756       0.27633259
H        6.96716949      -6.79570725      -0.45198619
H        5.81629098      -7.69161195      -2.41407298
C        5.26219571      -4.26984735      -3.01124527
H        5.01960016      -3.21761333       4.05726235
H        6.45756016      -2.84864312       2.36005957
H        4.86464846      -2.66439144       1.73809058
H        4.94314451      -3.54435689      -2.26942189
H        4.39698564      -4.50927662      -3.62717870
H        5.98418868      -3.77686841      -3.66210075
O        4.24727582      -4.93206343       3.24497180
O        6.86886497      -7.12048453      -1.64558684
O        5.62856509      -6.61400234      -3.10309625
22
Properties=species:S:1:pos:R:3 energy=-1890.250441852964 pbc="F F F"
C        5.63487098      -4.25847740       0.67117583
C        6.83675993      -4.40497847      -0.27612542
C        6.58275969      -5.53898698      -1.24980675
C        5.84488465      -5.47625437      -2.39388202
C        4.95030318      -3.96981630       3.21514990
C        5.58935541      -3.43647905       1.98764870
H        4.87138831      -3.69716117       0.08185135
H        5.22880619      -5.27232552       0.82601876
H        6.89975681      -3.45189038      -0.85481614
H        7.78432664      -4.44319444       0.27478298
H        6.95760689      -6.80752700      -0.41958182
H        5.81579460      -7.66584008      -2.40725260
C        5.26643853      -4.27043837      -3.01895500
H        5.04001900      -3.24843809       4.06300402
H        6.42016393      -2.82038152       2.34977604
H        4.81071035      -2.70323520       1.74606920
H        4.98364303      -3.52675276      -2.28204945
H        4.38146446      -4.49779587      -3.60864722
H        5.98081088      -3.80367192      -3.69531529
O        4.30203655      -4.98350682       3.25942865
O        6.87842692      -7.09186738      -1.58409862
O        5.61691707      -6.62110589      -3.09490612
22
Properties=species:S:1:pos:R:3 energy=-1890.8271098190794 pbc="F F F"
C        5.63323014      -4.23918836       0.65506502
C        6.83936695      -4.40134029      -0.28272555
C        6.57814491      -5.53685416      -1.25192362
C        5.83957490      -5.47842412      -2.39622406
C        4.97549743      -4.00237250       3.22064145
C        5.57391867      -3.44608168       1.98507331
H        4.89085981      -3.64755301       0.06990021
H        5.19937261      -5.24294629       0.78571763
H        6.91187164      -3.45233390      -0.86608837
H        7.78308936      -4.44295116       0.27347579
H        6.94810493      -6.81799242      -0.38648771
H        5.81500545      -7.64099206      -2.40009261
C        5.27087880      -4.27126191      -3.02663083
H        5.06086809      -3.27912424       4.06797910
H        6.38079713      -2.79404351       2.33977494
H        4.75815913      -2.74426970       1.75324293
H        5.02469880      -3.51019963      -2.29582205
H        4.36700273      -4.48561949      -3.58975685
H        5.97641123      -3.83099359      -3.72797862
O        4.35814352      -5.03383074       3.27241793
O        6.88672808      -7.06373397      -1.52364814
O        5.60551967      -6.62801826      -3.08644090
22
Properties=species:S:1:pos:R:3 energy=-1891.3454143104768 pbc="F F F"
C        5.63145510      -4.21944199       0.63925839
C        6.84151750      -4.39715037      -0.28902860
C        6.57327298      -5.53431745      -1.25334501
C        5.83445793      -5.48048745      -2.39802479
C        5.00115878      -4.03445177       3.22519177
C        5.55813794      -3.45642925       1.98232332
H        4.91079131      -3.59791373       0.05955496
H        5.17009332      -5.21188537       0.74544005
H        6.92354445      -3.45244853      -0.87712316
H        7.78142679      -4.44227955       0.27241445
H        6.93867186      -6.82709604      -0.35277569
H        5.81393191      -7.61708517      -2.39259898
C        5.27550983      -4.27231179      -3.03426228
H        5.08211986      -3.30962826       4.07217327
H        6.33951672      -2.76970455       2.33005907
H        4.70709176      -2.78742697       1.75958195
H        5.06625033      -3.49473430      -2.31072701
H        4.35363096      -4.47276067      -3.57053769
H        5.97098927      -3.85879197      -3.76003506
O        4.41552254      -5.08294855       3.28391020
O        6.89376434      -7.03610203      -1.46426928
O        5.59438851      -6.63472923      -3.07771086
22
Properties=species:S:1:pos:R:3 energy=-1891.8013092488638 pbc="F F F"
C        5.62953729      -4.19926213       0.62379190
C        6.84320407      -4.39241851      -0.29502269
C        6.56814234      -5.53138862      -1.25407330
C        5.82953229      -5.48243978      -2.39928920
C        5.02724885      -4.06600756       3.22878730
C        5.54202975      -3.46751624       1.97938961
H        4.93115258      -3.54832797       0.05084721
H        5.14101632      -5.17917017       0.70526100
H        6.93475506      -3.45223466      -0.88790426
H        7.77934007      -4.44118142       0.27160234
H        6.92931594      -6.83483043      -0.31851758
H        5.81258239      -7.59413670      -2.38477769
C        5.28032493      -4.27358184      -3.04183889
H        5.10374680      -3.33990668       4.07557220
H        6.29637969      -2.74744011       2.32063121
H        4.65760517      -2.83263901       1.76505642
H        5.10823611      -3.48039353      -2.32675165
H        4.34137962      -4.45923261      -3.55101983
H        5.96454452      -3.88702559      -3.79142895
O        4.47409943      -5.13077362       3.29387604
O        6.89953157      -7.00898925      -1.40599588
O        5.58353922      -6.64122858      -3.06872629
22
Properties=species:S:1:pos:R:3 energy=-1892.1936075594413 pbc="F F F"
C        5.62746816      -4.17867262       0.60870151
C        6.84441918      -4.38715453      -0.30069594
C        6.56275140      -5.52807944      -1.25411090
C        5.82479652      -5.48427650      -2.40002230
C        5.05372926      -4.09699331       3.23141445
C        5.52561061      -3.47933716       1.97626306
H        4.95191340      -3.49888036       0.04380855
H        5.11218961      -5.14482812       0.66525550
H        6.94548328      -3.45169268      -0.89841544
H        7.77683037      -4.43965858       0.27104287
H        6.92004545      -6.84118812      -0.28378519
H        5.81096527      -7.57216391      -2.37663470
C        5.28531740      -4.27506589      -3.04935018
H        5.12572134      -3.36991600       4.07816155
H        6.25144300      -2.72732563       2.31149416
H        4.60979630      -2.87983782       1.76963652
H        5.15059466      -3.46721410      -2.34388329
H        4.33027920      -4.44504851      -3.53123335
H        5.95707652      -3.91565300      -3.82210464
O        4.53380000      -5.17721929       3.30228603
O        6.90402566      -6.98241336      -1.34886182
O        5.57298741      -6.64750607      -3.05949745
22
Properties=species:S:1:pos:R:3 energy=-1892.5234890979225 pbc="F F F"
C        5.62523914      -4.15769730       0.59402318
C        6.84515533      -4.38136825      -0.30603648
C        6.55709861      -5.52440168      -1.25346021
C        5.82024918      -5.48599302      -2.40022907
C        5.08056163      -4.12736247       3.23305964
C        5.50889706      -3.49188648       1.97293456
H        4.97304354      -3.44965552       0.03847057
H        5.08366116      -5.10888662       0.62549855
H        6.95570893      -3.45082297      -0.90864045
H        7.77389886      -4.43771286       0.27073945
H        6.91086862      -6.84616166      -0.24865033
H        5.80908895      -7.55118410      -2.36817600
C        5.29048058      -4.27675776      -3.05678568
H        5.14801594      -3.39961272       4.07992701
H        6.20476361      -2.70943656       2.30265072
H        4.56376212      -2.92895543       1.77329243
H        5.19326446      -3.45523279      -2.36210925
H        4.32036021      -4.43022157      -3.51120836
H        5.94858480      -3.94463274      -3.85200644
O        4.59455007      -5.22219894       3.30911075
O        6.90724248      -6.95639208      -1.29290096
O        5.56274873      -6.65355147      -3.05003463
22
Properties=species:S:1:pos:R:3 energy=-1892.7939800790111 pbc="F F F"
C        5.62284168      -4.13636002       0.57979289
C        6.84540502      -4.37506948      -0.31103242
C        6.55118239      -5.52036710      -1.25212363
C        5.81588880      -5.48758473      -2.39991450
C        5.10770759      -4.15706850       3.23370929
C        5.49190564      -3.50515871       1.96939498
H        4.99451276      -3.40073808       0.03486487
H        5.05547899      -5.07137310       0.58606514
H        6.96541185      -3.44962592      -0.91856306
H        7.77054670      -4.43534606       0.27069549
H        6.90179374      -6.84974361      -0.21318484
H        5.80696181      -7.53121454      -2.35940755
C        5.29580775      -4.27865128      -3.06413492
H        5.17060308      -3.42895336       4.08085425
H        6.15639850      -2.69384837       2.29410368
H        4.51959955      -2.97992383       1.77599433
H        5.23618401      -3.44448638      -2.38141686