22
Properties=species:S:1:pos:R:3 energy=-1891.950682218132 pbc="F F F"
C        5.65052500      -4.49332000       0.95675000
C        6.72986500      -4.37290000      -0.12998100
C        6.62338600      -5.50204500      -1.10508200
C        5.96605200      -5.42754500      -2.26640800
C        4.63065700      -3.38849900       2.99094800
C        5.78313200      -3.39255000       2.01355300
H        4.64004400      -4.45373600       0.50010800
H        5.70627900      -5.48790600       1.44206200
H        6.64572900      -3.39365500      -0.64259500
H        7.73916100      -4.38003500       0.33131800
H        7.12167700      -6.42848300      -0.81804900
H        5.77756800      -8.21550500      -2.47213900
C        5.22662100      -4.29705100      -2.89182400
H        4.77388600      -2.74105500       3.87283200
H        6.74141500      -3.50086800       2.56072600
H        5.83716800      -2.39631300       1.52530400
H        4.42113900      -3.93895000      -2.23345200
H        4.76453200      -4.58759200      -3.85031800
H        5.89964300      -3.45231400      -3.10112500
O        3.61472800      -4.02741800       2.83807900
O        6.54777000      -7.62969300      -2.74289800
O        5.83626700      -6.48269200      -3.18834000
22
Properties=species:S:1:pos:R:3 energy=-1891.9464215225125 pbc="F F F"
C        5.64976127      -4.49490041       0.95892124
C        6.73133156      -4.37675133      -0.12435337
C        6.62076051      -5.50681026      -1.09552727
C        5.96822760      -5.42574751      -2.26015241
C        4.63088582      -3.38592606       2.98866486
C        5.78244426      -3.39090270       2.01108425
H        4.64059316      -4.45700081       0.49885462
H        5.70483708      -5.48890853       1.44570865
H        6.64972640      -3.39965258      -0.64239851
H        7.74163577      -4.38572588       0.33514198
H        7.11286267      -6.43693120      -0.81103337
H        5.75945950      -8.19303197      -2.48098692
C        5.22130333      -4.29933947      -2.88656236
H        4.77250591      -2.73275706       3.86583618
H        6.74187800      -3.49736449       2.55656604
H        5.83560325      -2.39686674       1.51836480
H        4.41824392      -3.93898020      -2.22685932
H        4.75433786      -4.59779868      -3.84088009
H        5.89361824      -3.45802253      -3.10824190
O        3.61789640      -4.03038557       2.84009160
O        6.55671706      -7.63317459      -2.75206030
O        5.87261440      -6.46314643      -3.20070940
22
Properties=species:S:1:pos:R:3 energy=-1891.9350737854325 pbc="F F F"
C        5.64894802      -4.49645150       0.96118069
C        6.73271495      -4.38059111      -0.11872663
C        6.61782155      -5.51145334      -1.08604830
C        5.97071878      -5.42354948      -2.25379109
C        4.63109758      -3.38334080       2.98640347
C        5.78174365      -3.38922008       2.00866071
H        4.64113832      -4.46025726       0.49761018
H        5.70338474      -5.48990928       1.44937591
H        6.65373343      -3.40561376      -0.64216096
H        7.74412578      -4.39142373       0.33897708
H        7.10401813      -6.44520069      -0.80408228
H        5.74309583      -8.17149504      -2.48811341
C        5.21599953      -4.30180655      -2.88129674
H        4.77111904      -2.72446538       3.85882515
H        6.74234062      -3.49385292       2.55241200
H        5.83403456      -2.39741899       1.51142896
H        4.41526049      -3.93892681      -2.22030488
H        4.74413549      -4.60803361      -3.83139826
H        5.88745510      -3.46383041      -3.11535599
O        3.62108749      -4.03334560       2.84210624
O        6.56255484      -7.63637837      -2.76484003
O        5.91071607      -6.44356030      -3.21139283
22
Properties=species:S:1:pos:R:3 energy=-1891.9176887999595 pbc="F F F"
C        5.64809525      -4.49796660       0.96350561
C        6.73401220      -4.38439908      -0.11313719
C        6.61461092      -5.51595368      -1.07669469
C        5.97347826      -5.42097976      -2.24737903
C        4.63129234      -3.38075965       2.98417587
C        5.78103610      -3.38751553       2.00629255
H        4.64167645      -4.46348608       0.49638185
H        5.70193160      -5.49090173       1.45304006
H        6.65772502      -3.41150605      -0.64188732
H        7.74661171      -4.39709454       0.34279678
H        7.09519722      -6.45325437      -0.79723066
H        5.72856728      -8.15097656      -2.49359852
C        5.21073947      -4.30443195      -2.87606256
H        4.76973395      -2.71622977       3.85184251
H        6.74279997      -3.49035489       2.54828888
H        5.83247158      -2.39796639       1.50453850
H        4.41221918      -3.93880246      -2.21382886
H        4.73398459      -4.61823344      -3.82193483
H        5.88119789      -3.46970118      -3.12242271
O        3.62428047      -4.03628058       2.84411082
O        6.56528785      -7.63923016      -2.78094357
O        5.95029468      -6.42410055      -3.22038449
22
Properties=species:S:1:pos:R:3 energy=-1891.8941331240821 pbc="F F F"
C        5.64721295      -4.49943904       0.96587325
C        6.73522031      -4.38815497      -0.10762143
C        6.61117043      -5.52029071      -1.06751607
C        5.97645879      -5.41806720      -2.24097125
C        4.63147016      -3.37819908       2.98199409
C        5.78032753      -3.38580241       2.00398994
H        4.64220452      -4.46666797       0.49517676
H        5.70048729      -5.49187934       1.45667740
H        6.66167609      -3.41729695      -0.64158255
H        7.74907426      -4.40270433       0.34657457
H        7.08645374      -6.46105511      -0.79051348
H        5.71596417      -8.13155887      -2.49752231
C        5.20555306      -4.30719542      -2.87089521
H        4.76835920      -2.70810004       3.84493186
H        6.74325316      -3.48689200       2.54422168
H        5.83092397      -2.39850561       1.49773544
H        4.40915051      -3.93861980      -2.20747145
H        4.72394485      -4.62833485      -3.81255207
H        5.87489095      -3.47559840      -3.12939755
O        3.62745456      -4.03917301       2.84609326
O        6.56492058      -7.64165577      -2.80007728
O        5.99107292      -6.40493410      -3.22767858
22
Properties=species:S:1:pos:R:3 energy=-1891.8634305967914 pbc="F F F"
C        5.64631110      -4.50086216       0.96826088
C        6.73633629      -4.39183854      -0.10221578
C        6.60754188      -5.52444386      -1.05856206
C        5.97961310      -5.41484066      -2.23462276
C        4.63163111      -3.37567550       2.97987016
C        5.77962389      -3.38409411       2.00176303
H        4.64271952      -4.46978366       0.49400208
H        5.69906141      -5.49283559       1.46026421
H        6.66556158      -3.42295398      -0.64125163
H        7.75149412      -4.40821910       0.35028395
H        7.07784151      -6.46856580      -0.78396570
H        5.70537680      -8.11332431      -2.49996483
C        5.20047017      -4.31007668      -2.86583010
H        4.76700336      -2.70012600       3.83813677
H        6.74369730      -3.48348586       2.54023538
H        5.82940139      -2.39903331       1.49106180
H        4.40608496      -3.93839145      -2.20127283
H        4.71407597      -4.63827449      -3.80331229
H        5.86857859      -3.48148561      -3.13623597
O        3.63058895      -4.04200540       2.84804150
O        6.56145756      -7.64358103      -2.82194754
O        6.03277345      -6.38622790      -3.23326928
22
Properties=species:S:1:pos:R:3 energy=-1891.8240874432445 pbc="F F F"
C        5.64539971      -4.50222929       0.97064576
C        6.73735715      -4.39542951      -0.09695662
C        6.60376707      -5.52839258      -1.04988228
C        5.98289394      -5.41132897      -2.22838855
C        4.63177525      -3.37320538       2.97781612
C        5.77893109      -3.38240400       1.99962199
H        4.64321841      -4.47281386       0.49286495
H        5.69766359      -5.49376395       1.46377678
H        6.66935642      -3.42844465      -0.64089952
H        7.75385197      -4.41360486       0.35389840
H        7.06941435      -6.47574932      -0.77762226
H        5.69689547      -8.09635523      -2.50100613
C        5.19552070      -4.31305546      -2.86090263
H        4.76567498      -2.69235744       3.83150086
H        6.74412949      -3.48015808       2.53635498
H        5.82791349      -2.39954613       1.48455961
H        4.40305303      -3.93813005      -2.19527319
H        4.70443765      -4.64798902      -3.79427778
H        5.86230514      -3.48732635      -3.14289343
O        3.63366286      -4.04476022       2.84994344
O        6.55490329      -7.64493175      -2.84626072
O        6.07511895      -6.36814889      -3.23715078
22
Properties=species:S:1:pos:R:3 energy=-1891.7744114324178 pbc="F F F"
C        5.64448876      -4.50353376       0.97300515
C        6.73827991      -4.39890762      -0.09188036
C        6.59988782      -5.53211629      -1.04152634
C        5.98625402      -5.40756100      -2.22232364
C        4.63190265      -3.37080514       2.97584401
C        5.77825507      -3.38074546       1.99757699
H        4.64369818      -4.47573929       0.49177253
H        5.69630344      -5.49465788       1.46719140
H        6.67303554      -3.43373647      -0.64053120
H        7.75612852      -4.41882762       0.35739142
H        7.06122607      -6.48256855      -0.77151812
H        5.69061049      -8.08073398      -2.50072627
C        5.19073452      -4.31611150      -2.85614821
H        4.76438262      -2.68484418       3.82506770
H        6.74454686      -3.47693027       2.53260547
H        5.82646995      -2.40004073       1.47827089
H        4.40008521      -3.93784824      -2.18951272
H        4.69508958      -4.65741511      -3.78551082
H        5.85611493      -3.49308416      -3.14932539
O        3.63665550      -4.04741999       2.85178700
O        6.54526227      -7.64563376      -2.87272320
O        6.11783211      -6.35086401      -3.23931729
22
Properties=species:S:1:pos:R:3 energy=-1891.712839409689 pbc="F F F"
C        5.64358825      -4.50476890       0.97531631
C        6.73910157      -4.40225262      -0.08702340
C        6.59594592      -5.53559444      -1.03354387
C        5.98964610      -5.40356559      -2.21648304
C        4.63201336      -3.36849124       2.97396585
C        5.77760175      -3.37913185       1.99563819
H        4.64415579      -4.47854066       0.49073197
H        5.69499058      -5.49551087       1.47048435
H        6.67657386      -3.43879694      -0.64015163
H        7.75830444      -4.42385338       0.36073650
H        7.05333050      -6.48898638      -0.76568823
H        5.68661217      -8.06654289      -2.49920531
C        5.18614154      -4.31922452      -2.85160223
H        4.76313484      -2.67763602       3.81888090
H        6.74494649      -3.47382402       2.52901184
H        5.82508040      -2.40051376       1.47223765
H        4.39721200      -3.93755866      -2.18403160
H        4.68609147      -4.66648941      -3.77707372
H        5.85005227      -3.49872261      -3.15548734
O        3.63954607      -4.04996719       2.85356011
O        6.53253903      -7.64561287      -2.90104135
O        6.16063560      -6.33454019      -3.23976298
22
Properties=species:S:1:pos:R:3 energy=-1891.6382905162516 pbc="F F F"
C        5.64270816      -4.50592804       0.97755651
C        6.73981914      -4.40544424      -0.08242214
C        6.59198320      -5.53880645      -1.02598448
C        5.99302291      -5.39937160      -2.21092176
C        4.63210745      -3.36628011       2.97219368
C        5.77697708      -3.37757656       1.99381576
H        4.64458823      -4.48119870       0.48975042
H        5.69373464      -5.49631637       1.47363193
H        6.67994631      -3.44359358      -0.63976578
H        7.76036044      -4.42864814       0.36390713
H        7.04578145      -6.49496570      -0.76016755
H        5.68499081      -8.05386431      -2.49652328
C        5.18177163      -4.32237424      -2.84730010
H        4.76194020      -2.67078277       3.81298404
H        6.74532552      -3.47086095       2.52559910
H        5.82375452      -2.40096189       1.46650194
H        4.39446388      -3.93727393      -2.17887002
H        4.67750301      -4.67514859      -3.76902876
H        5.84416148      -3.50420522      -3.16133471
O        3.64231379      -4.05238434       2.85525069
O        6.51673806      -7.64479489      -2.93092154
O        6.20325210      -6.31934436      -3.23848205
22
Properties=species:S:1:pos:R:3 energy=-1891.550561993842 pbc="F F F"
C        5.64185849      -4.50700452       0.97970299
C        6.74042964      -4.40846223      -0.07811299
C        6.58804144      -5.54173176      -1.01889780
C        5.99633718      -5.39500787      -2.20569479
C        4.63218499      -3.36418820       2.97053954
C        5.77638697      -3.37609296       1.99211986
H        4.64499246      -4.48369412       0.48883502
H        5.69254523      -5.49706787       1.47661043
H        6.68312784      -3.44809391      -0.63937862
H        7.76227720      -4.43317793       0.36687680
H        7.03863273      -6.50046938      -0.75499104
H        5.68583671      -8.04278059      -2.49276026
C        5.17765468      -4.32554041      -2.84327723
H        4.76080727      -2.66433424       3.80742072
H        6.74568103      -3.46806267       2.52239222
H        5.82250196      -2.40138176       1.46110575
H        4.39187136      -3.93700669      -2.17406816
H        4.66938390      -4.68332930      -3.76143825
H        5.83848690      -3.50949555      -3.16682300
O        3.64493786      -4.05465391       2.85684665
O        6.49786387      -7.64310565      -2.96207014
O        6.24540428      -6.30544348      -3.23546870
22
Properties=species:S:1:pos:R:3 energy=-1891.4507744702134 pbc="F F F"
C        5.64104924      -4.50799167       0.98173304
C        6.74093008      -4.41128631      -0.07413234
C        6.58416245      -5.54434980      -1.01233344
C        5.99954166      -5.39050326      -2.20085716
C        4.63224604      -3.36223196       2.96901545
C        5.77583736      -3.37469442       1.99056065
H        4.64536548      -4.48600764       0.48799294
H        5.69143196      -5.49775883       1.47939612
H        6.68609335      -3.45226542      -0.63899512
H        7.76403540      -4.43740874       0.36961901
H        7.03193817      -6.50546031      -0.75019365
H        5.68924019      -8.03337407      -2.48799629
C        5.17382059      -4.32870275      -2.83956902
H        4.75974459      -2.65834022       3.80223454
H        6.74601015      -3.46545077       2.51941621
H        5.82133238      -2.40177004       1.45609112
H        4.38946494      -3.93676959      -2.16966621
H        4.66179384      -4.69096822      -3.75436446
H        5.83307284      -3.51455714      -3.17190765
O        3.64739749      -4.05675842       2.85833591
O        6.47592097      -7.64047097      -2.99419354
O        6.28681482      -6.29300446      -3.23071711
22
Properties=species:S:1:pos:R:3 energy=-1891.3418435524711 pbc="F F F"
C        5.64029039      -4.50888281       0.98362390
C        6.74131747      -4.41389623      -0.07051660
C        6.58038805      -5.54664002      -1.00634102
C        6.00258907      -5.38588661      -2.19646387
C        4.63229065      -3.36042781       2.96763346
C        5.77533419      -3.37339433       1.98914830
H        4.64570424      -4.48811998       0.48723133
H        5.69040447      -5.49838272       1.48196531
H        6.68881780      -3.45607563      -0.63862026
H        7.76561575      -4.44130658       0.37210723
H        7.02575158      -6.50990137      -0.74581032
H        5.69529154      -8.02572709      -2.48231143
C        5.17029924      -4.33184100      -2.83621087
H        4.75876074      -2.65285054       3.79746908
H        6.74630998      -3.46304686       2.51669606
H        5.82025544      -2.40212337       1.45150008
H        4.38727509      -3.93657524      -2.16570435
H        4.65479252      -4.69800200      -3.74786971
H        5.82796364      -3.51935354      -3.17654414
O        3.64967189      -4.05868035       2.85970640
O        6.45091388      -7.63681666      -3.02699810
O        6.32720641      -6.28219427      -3.22422148
22
Properties=species:S:1:pos:R:3 energy=-1891.2288924954305 pbc="F F F"
C        5.63959193      -4.50967129       0.98535284
C        6.74158881      -4.41627173      -0.06730216
C        6.57676003      -5.54858184      -1.00097017
C        6.00543215      -5.38118678      -2.19256992
C        4.63231890      -3.35879221       2.96640560
C        5.77488337      -3.37220606       1.98789297
H        4.64600573      -4.49001184       0.48655733
H        5.68947236      -5.49893301       1.48429427
H        6.69127610      -3.45949204      -0.63825899
H        7.76699894      -4.44483745       0.37431497
H        7.02012677      -6.51375545      -0.74187603
H        5.70408108      -8.01992201      -2.47578572
C        5.16712051      -4.33493487      -2.83323818
H        4.75786426      -2.64791498       3.79316794
H        6.74657763      -3.46087256       2.51425676
H        5.81928080      -2.40243842       1.44737463
H        4.38533232      -3.93643630      -2.16222278
H        4.64843963      -4.70436730      -3.74201627
H        5.82320360      -3.52384829      -3.18068793
O        3.65174027      -4.06040221       2.86094602
O        6.42284709      -7.63206854      -3.06019019
O        6.36630171      -6.27317982      -3.21597600
22
Properties=species:S:1:pos:R:3 energy=-1891.119554727255 pbc="F F F"
C        5.63896413      -4.51035302       0.98689702
C        6.74174633      -4.41839679      -0.06452208
C        6.57331604      -5.55016764      -0.99626494
C        6.00802812      -5.37645391      -2.18922784
C        4.63233201      -3.35733950       2.96533964
C        5.77449060      -3.37114244       1.98679970
H        4.64626817      -4.49166844       0.48597520
H        5.68864459      -5.49940477       1.48636175
H        6.69344813      -3.46248996      -0.63791970
H        7.76817060      -4.44797407       0.37621915
H        7.01510605      -6.51700321      -0.73841404
H        5.71564556      -8.01600753      -2.46854439
C        5.16430300      -4.33797155      -2.83068123
H        4.75706297      -2.64357384       3.78936556
H        6.74681080      -3.45894601       2.51211752
H        5.81841652      -2.40271291       1.44374800
H        4.38366096      -3.93636584      -2.15925254
H        4.64277872      -4.71001211      -3.73686124
H        5.81883218      -3.52801730      -3.18430158
O        3.65358572      -4.06191033       2.86204442
O        6.39175572      -7.62614441      -3.09341387
O        6.40387708      -6.26606941      -3.20599551
22
Properties=species:S:1:pos:R:3 energy=-1891.0241100649764 pbc="F F F"
C        5.63841868      -4.51093849       0.98823312
C        6.74182139      -4.42027922      -0.06219057
C        6.57007038      -5.55146215      -0.99223834
C        6.01035925      -5.37185735      -2.18647627
C        4.63233771      -3.35607221       2.96441961
C        5.77416026      -3.37021331       1.98584475
H        4.64649681      -4.49310003       0.48547293
H        5.68792642      -5.49980201       1.48816014
H        6.69534144      -3.46508814      -0.63762986
H        7.76914410      -4.45072657       0.37781594
H        7.01066722      -6.51972478      -0.73538234
H        5.72972205      -8.01384420      -2.46096529
C        5.16180215      -4.34097987      -2.82854161
H        4.75636037      -2.63981406       3.78604511
H        6.74701047      -3.45726612       2.51026515
H        5.81766173      -2.40295063       1.44060412
H        4.38225082      -3.93637948      -2.15677358
H        4.63776287      -4.71494775      -3.73243257
H        5.81486156      -3.53190573      -3.18738736
O        3.65521302      -4.06321251       2.86300079
O        6.35784608      -7.61891721      -3.12596445
O        6.44000924      -6.26064319      -3.19441043
22
Properties=species:S:1:pos:R:3 energy=-1890.9530946372104 pbc="F F F"
C        5.63796781      -4.51144321       0.98933761
C        6.74185551      -4.42193505      -0.06031534
C        6.56702925      -5.55255527      -0.98889254
C        6.01241652      -5.36760787      -2.18434901
C        4.63234599      -3.35498882       2.96362124
C        5.77389624      -3.36942745       1.98499438
H        4.64669931      -4.49432558       0.48503289
H        5.68732181      -5.50013184       1.48968661
H        6.69697321      -3.46732052      -0.63742357
H        7.76994247      -4.45311815       0.37910818
H        7.00676568      -6.52203487      -0.73271621
H        5.74594348      -8.01322715      -2.45351416
C        5.15955140      -4.34400312      -2.82681093
H        4.75575849      -2.63660404       3.78317196
H        6.74717876      -3.45582508       2.50867523
H        5.81701243      -2.40315747       1.43790980
H        4.38107970      -3.93649369      -2.15474808
H        4.63331371      -4.71920758      -3.72874806
H        5.81129441      -3.53558276      -3.18996132
O        3.65663451      -4.06432401       2.86381767
O        6.32138402      -7.61024428      -3.15701602
O        6.47487930      -6.25656721      -3.18139133
22
Properties=species:S:1:pos:R:3 energy=-1890.9139656542607 pbc="F F F"
C        5.63762373      -4.51188270       0.99018698
C        6.74189017      -4.42338037      -0.05890406
C        6.56419884      -5.55353693      -0.98622975
C        6.01419091      -5.36391627      -2.18287988
C        4.63236684      -3.35408776       2.96292028
C        5.77370245      -3.36879364       1.98421488
H        4.64688336      -4.49536407       0.48463742
H        5.68683473      -5.50040137       1.49093832
H        6.69836061      -3.46922099      -0.63733495
H        7.77058871      -4.45517198       0.38009874
H        7.00335681      -6.52404824      -0.73035089
H        5.76394263      -8.01395144      -2.44665679
C        5.15748421      -4.34708464      -2.82548079
H        4.75525938      -2.63391217       3.78071147
H        6.74731779      -3.45461507       2.50732330
H        5.81646466      -2.40333932       1.43563182
H        4.38012543      -3.93672496      -2.15313820
H        4.62935284      -4.72282499      -3.72582554
H        5.80813344      -3.53911763      -3.19203955
O        3.65786253      -4.06526012       2.86449757
O        6.28263543      -7.59998294      -3.18574254
O        6.50866851      -6.25350741      -3.16710884
22
Properties=species:S:1:pos:R:3 energy=-1890.9083276302592 pbc="F F F"
C        5.63739866      -4.51227251       0.99075772
C        6.74196691      -4.42463123      -0.05796444
C        6.56158534      -5.55449705      -0.98425214
C        6.01567342      -5.36099338      -2.18210266
C        4.63241025      -3.35336749       2.96229245
C        5.77358280      -3.36832067       1.98347249
H        4.64705663      -4.49623449       0.48426888
H        5.68646914      -5.50061773       1.49191245
H        6.69952084      -3.47082350      -0.63739809
H        7.77110584      -4.45691126       0.38079046
H        7.00039599      -6.52587962      -0.72822164
H        5.78335232      -8.01581213      -2.44085898
C        5.15553401      -4.35026775      -2.82454279
H        4.75486505      -2.63170685       3.77862899
H        6.74742968      -3.45362828       2.50618491
H        5.81601443      -2.40350206       1.43373697
H        4.37936579      -3.93708978      -2.15190612
H        4.62580187      -4.72583334      -3.72368281
H        5.80538131      -3.54257957      -3.19363812
O        3.65890942      -4.06603609       2.86504303
O        6.24186621      -7.58799050      -3.21131797
O        6.54155810      -6.25112973      -3.15173359
22
Properties=species:S:1:pos:R:3 energy=-1890.930957353094 pbc="F F F"
C        5.63730482      -4.51262815       0.99102632
C        6.74212722      -4.42570370      -0.05750415
C        6.55919494      -5.55552555      -0.98296188
C        6.01685504      -5.35905000      -2.18205116
C        4.63248621      -3.35282645       2.96171349
C        5.77354120      -3.36801731       1.98273348
H        4.64722680      -4.49695581       0.48390960
H        5.68622900      -5.50078802       1.49260616
H        6.70047107      -3.47216195      -0.63764712
H        7.77151688      -4.45835918       0.38118621
H        6.99783858      -6.52764378      -0.72626371
H        5.80380534      -8.01860429      -2.43658654
C        5.15363425      -4.35359577      -2.82398853
H        4.75457754      -2.62995647       3.77688986
H        6.74751657      -3.45285691       2.50523562
H        5.81565775      -2.40365159       1.43219203
H        4.37877859      -3.93760463      -2.15101399
H        4.62258240      -4.72826602      -3.72233768
H        5.80304071      -3.54603779      -3.19477312
O        3.65978754      -4.06666722       2.86545658
O        6.19934227      -7.57412431      -3.23291628
O        6.57372929      -6.24910011      -3.13543620
22
Properties=species:S:1:pos:R:3 energy=-1890.9711547222812 pbc="F F F"
C        5.63735434      -4.51296510       0.99096943
C        6.74241240      -4.42661390      -0.05753094
C        6.55703425      -5.55671198      -0.98236065
C        6.01772590      -5.35829606      -2.18275937
C        4.63260462      -3.35246306       2.96115932
C        5.77358152      -3.36789226       1.98196434
H        4.64740149      -4.49754691       0.48354209
H        5.68611823      -5.50091932       1.49301672
H        6.70122844      -3.47327008      -0.63811580
H        7.77184469      -4.45953882       0.38128892
H        6.99564016      -6.52945473      -0.72441270
H        5.82493409      -8.02212327      -2.43430134
C        5.15171886      -4.35711168      -2.82380952
H        4.75439883      -2.62862949       3.77545962
H        6.74758057      -3.45229310       2.50445113
H        5.81539064      -2.40379374       1.43096395
H        4.37834173      -3.93828582      -2.15042413
H        4.61961653      -4.73015630      -3.72180754
H        5.80111415      -3.54956107      -3.19546056
O        3.66050916      -4.06716869       2.86574076
O        6.15533110      -7.55824537      -3.24971738
O        6.60536231      -6.24708423      -3.11838735
22
Properties=species:S:1:pos:R:3 energy=-1891.0161435340476 pbc="F F F"
C        5.63755466      -4.51329535       0.99057374
C        6.74285063      -4.42738104      -0.05805624
C        6.55513436      -5.55812316      -0.98241888
C        6.01822564      -5.35888853      -2.18427259
C        4.63276912      -3.35227303       2.96061716
C        5.77370546      -3.36794774       1.98114523
H        4.64758559      -4.49802045       0.48315730
H        5.68613663      -5.50101603       1.49314832
H        6.70180710      -3.47416993      -0.63881695
H        7.77210265      -4.46046689       0.38110630
H        6.99376788      -6.53138302      -0.72262483
H        5.84634663      -8.02618200      -2.43422932
C        5.14975176      -4.36083820      -2.82399134
H        4.75432791      -2.62769956       3.77431470
H        6.74762330      -3.45192805       2.50381577
H        5.81520909      -2.40393128       1.43002910
H        4.37803858      -3.93913885      -2.15010844
H        4.61685562      -4.73153110      -3.72208526
H        5.79959405      -3.55319091      -3.19571382
O        3.66108394      -4.06755160       2.86589892
O        6.11019688      -7.54043678      -3.26125897
O        6.63657652      -6.24473149      -3.10076091
22
Properties=species:S:1:pos:R:3 energy=-1891.0536186798606 pbc="F F F"
C        5.63790596      -4.51362551       0.98984153
C        6.74344978      -4.42802914      -0.05909714
C        6.55356439      -5.55979066      -0.98305863
C        6.01821553      -5.36090223      -2.18665359
C        4.63297373      -3.35224794       2.96009172
C        5.77391141      -3.36817601       1.98027750
H        4.64777971      -4.49837938       0.48275931
H        5.68627772      -5.50107843       1.49301579
H        6.70221659      -3.47486543      -0.63973099
H        7.77228939      -4.46115023       0.38065348
H        6.99220685      -6.53343181      -0.72088834
H        5.86761327      -8.03062067      -2.43623073
C        5.14774337      -4.36476663      -2.82451038
H        4.75435911      -2.62714828       3.77344841
H        6.74764563      -3.45175137       2.50332731
H        5.81510904      -2.40406217       1.42937846
H        4.37786100      -3.94015250      -2.15005364
H        4.61429639      -4.73240753      -3.72312565
H        5.79845721      -3.55692653      -3.19554209
O        3.66151741      -4.06782065       2.86593562
O        6.06445353      -7.52112582      -3.26763329
O        6.66739697      -6.24166606      -3.08273567
22
Properties=species:S:1:pos:R:3 energy=-1891.0718807845913 pbc="F F F"
C        5.63840775      -4.51396174       0.98877641
C        6.74421596      -4.42858261      -0.06067123
C        6.55239670      -5.56174304      -0.98419780
C        6.01755012      -5.36440495      -2.18996669
C        4.63321161      -3.35237899       2.95958920
C        5.77419746      -3.36856849       1.97936433
H        4.64798409      -4.49862586       0.48235333
H        5.68653447      -5.50110643       1.49263491
H        6.70246605      -3.47535897      -0.64083550
H        7.77240232      -4.46159480       0.37994622
H        6.99094373      -6.53559847      -0.71919420
H        5.88830109      -8.03528178      -2.44013438
C        5.14570809      -4.36888555      -2.82534227
H        4.75448638      -2.62695797       3.77285555
H        6.74764837      -3.45175257       2.50298467
H        5.81508644      -2.40418399       1.42900427
H        4.37780160      -3.94131411      -2.15024774