22
Properties=species:S:1:pos:R:3 energy=-2169.395080746778 pbc="F F F"
O       -1.71886200       2.64616100       2.31016500
C       -0.90396000       2.43951900       1.49814400
C       -0.56412400       2.67038200       0.09772500
C        0.73020400       1.95481000      -0.30958100
C        0.65580400       0.43310300      -0.13213500
C       -0.46955100      -0.26447400      -0.90341500
H       -0.33405400      -1.37070600      -0.87289400
C       -0.61204400       0.25224300      -2.34720200
O       -1.27827600       1.22038700      -2.61864800
C        0.14702800      -0.53856200      -3.36828800
H       -2.07905000      -0.31155400       1.49067300
H       -1.40736100       2.31156400      -0.55600200
H       -0.48391000       3.76082300      -0.10597800
H        0.96114500       2.20876000      -1.36374100
H        1.57659000       2.34485600       0.29211600
H        1.62850500      -0.01667500      -0.41240500
H        0.51606500       0.19993000       0.94742900
H       -0.32580300      -1.51621500      -3.54650000
H        0.16586000      -0.01820700      -4.33944000
H        1.18686500      -0.72594100      -3.07345200
O       -1.96116200      -0.93138400       0.70678800
O       -1.77136200       0.03270400      -0.32173100
22
Properties=species:S:1:pos:R:3 energy=-2169.3932477973153 pbc="F F F"
O       -1.70312045       2.64382584       2.32543110
C       -0.89301263       2.44002934       1.50903930
C       -0.56378216       2.67043809       0.10657864
C        0.73185807       1.96229090      -0.30667319
C        0.66413669       0.44028419      -0.12834090
C       -0.45840314      -0.25893603      -0.90151721
H       -0.32644666      -1.36461691      -0.86353902
C       -0.60010226       0.25170073      -2.34676883
O       -1.25331669       1.23022561      -2.61664824
C        0.13951570      -0.55256527      -3.36997350
H       -2.11114134      -0.33005471       1.46569191
H       -1.40943923       2.30526100      -0.54521526
H       -0.49738280       3.75858753      -0.10442030
H        0.95729041       2.21759429      -1.36159753
H        1.57738454       2.35753929       0.29239058
H        1.63871355      -0.00552718      -0.40958633
H        0.52615741       0.20732487       0.95199683
H       -0.32697508      -1.53743007      -3.52335919
H        0.12920567      -0.03975667      -4.34721127
H        1.18762674      -0.72736934      -3.09161145
O       -1.98704479      -0.93738158       0.67201383
O       -1.76317453       0.05006006      -0.33505199
22
Properties=species:S:1:pos:R:3 energy=-2169.389078382981 pbc="F F F"
O       -1.68747089       2.64132310       2.34069244
C       -0.88228888       2.44079727       1.51988127
C       -0.56416992       2.66996786       0.11458295
C        0.73355854       1.96973080      -0.30372065
C        0.67242724       0.44743981      -0.12456546
C       -0.44735769      -0.25354491      -0.89950174
H       -0.31908254      -1.35845095      -0.85422940
C       -0.58818059       0.25129426      -2.34618171
O       -1.22810367       1.23954629      -2.61484155
C        0.13191343      -0.56634294      -3.37127809
H       -2.14309492      -0.34858406       1.43987790
H       -1.41080637       2.29907766      -0.53415860
H       -0.51075572       3.75619767      -0.10289369
H        0.95341254       2.22632678      -1.35940586
H        1.57829399       2.37008548       0.29263970
H        1.64882102       0.00550660      -0.40682440
H        0.53619277       0.21463417       0.95653193
H       -0.32726422      -1.55801225      -3.50011618
H        0.09187417      -0.06179855      -4.35364729
H        1.18761707      -0.72838137      -3.11077177
O       -2.01209047      -0.94187376       0.63611396
O       -1.75489791       0.06658506      -0.34655575
22
Properties=species:S:1:pos:R:3 energy=-2169.3837522036106 pbc="F F F"
O       -1.67190720       2.63864256       2.35594653
C       -0.87186381       2.44184689       1.53060872
C       -0.56517369       2.66903963       0.12183688
C        0.73530981       1.97712088      -0.30072149
C        0.68067572       0.45456190      -0.12081368
C       -0.43645196      -0.24826019      -0.89736476
H       -0.31199125      -1.35220156      -0.84497208
C       -0.57628881       0.25100558      -2.34544389
O       -1.20269655       1.24836512      -2.61323104
C        0.12423098      -0.57987665      -3.37221414
H       -2.17484255      -0.36710600       1.41325381
H       -1.41152788       2.29279725      -0.52292273
H       -0.52401194       3.75367264      -0.10140583
H        0.94950950       2.23494593      -1.35716972
H        1.57932865       2.38247483       0.29285669
H        1.65881737       0.01641108      -0.40412351
H        0.54615583       0.22184335       0.96102273
H       -0.32668302      -1.57793996      -3.47681579
H        0.05394587      -0.08428699      -4.35874417
H        1.18684705      -0.72898687      -3.13088267
O       -2.03634597      -0.94495118       0.59920422
O       -1.74648916       0.08240576      -0.35627608
22
Properties=species:S:1:pos:R:3 energy=-2169.3776616529385 pbc="F F F"
O       -1.65642327       2.63577405       2.37119088
C       -0.86181244       2.44320227       1.54116048
C       -0.56667989       2.66772173       0.12843939
C        0.73711627       1.98445231      -0.29767382
C        0.68888222       0.46164254      -0.11709054
C       -0.42572330      -0.24304142      -0.89510246
H       -0.30520240      -1.34586217      -0.83577404
C       -0.56443677       0.25081667      -2.34455862
O       -1.17715497       1.25669818      -2.61181985
C        0.11647817      -0.59314805      -3.37279398
H       -2.20631602      -0.38558448       1.38584250
H       -1.41166926       2.28620307      -0.51159833
H       -0.53713463       3.75103168      -0.09996436
H        0.94557939       2.24344021      -1.35489285
H        1.58049880       2.39468761       0.29303493
H        1.66869254       0.02717100      -0.40148793
H        0.55603133       0.22893785       0.96545769
H       -0.32524409      -1.59719160      -3.45350283
H        0.01550109      -0.10717631      -4.36249799
H        1.18532770      -0.72919559      -3.15189388
O       -2.05985820      -0.94670447       0.56140041
O       -1.73790529       0.09764894      -0.36424678
22
Properties=species:S:1:pos:R:3 energy=-2169.370735068069 pbc="F F F"
O       -1.64101298       2.63270738       2.38642301
C       -0.85220982       2.44488750       1.55147538
C       -0.56857493       2.66608250       0.13448945
C        0.73898229       1.99171624      -0.29457572
C        0.69704681       0.46867377      -0.11340104
C       -0.41520903      -0.23784813      -0.89271100
H       -0.29874560      -1.33942624      -0.82664223
C       -0.55263428       0.25070951      -2.34352916
O       -1.15153855       1.26456156      -2.61061110
C        0.10866480      -0.60613877      -3.37302998
H       -2.23744714      -0.40398345       1.35766680
H       -1.41129598       2.27907839      -0.50027610
H       -0.55010697       3.74829402      -0.09857695
H        0.94162029       2.25179808      -1.35257900
H        1.58181474       2.40670408       0.29316777
H        1.67843648       0.03777112      -0.39892196
H        0.56580403       0.23590309       0.96982523
H       -0.32296004      -1.61574560      -3.43022212
H       -0.02337980      -0.13042086      -4.36490485
H        1.18307006      -0.72901731      -3.17375509
O       -2.08267409      -0.94722426       0.52281834
O       -1.72910331       0.11244139      -0.37050167
22
Properties=species:S:1:pos:R:3 energy=-2169.3627029397753 pbc="F F F"
O       -1.62567022       2.62943234       2.40164044
C       -0.84313098       2.44692667       1.56149225
C       -0.57074522       2.66419026       0.14008602
C        0.74091228       1.99890385      -0.29142531
C        0.70516958       0.47564764      -0.10975019
C       -0.40494648      -0.23263986      -0.89018657
H       -0.29265045      -1.33288718      -0.81758363
C       -0.54089119       0.25066608      -2.34235874
O       -1.12590692       1.27197136      -2.60960793
C        0.10080068      -0.61883046      -3.37293449
H       -2.26816772      -0.42226686       1.32874958
H       -1.41047354       2.27120649      -0.48904674
H       -0.56291212       3.74547888      -0.09725123
H        0.93763032       2.26000801      -1.35023189
H        1.58328675       2.41850451       0.29324857
H        1.68803913       0.04819617      -0.39642989
H        0.57545867       0.24272452       0.97411381
H       -0.31984347      -1.63358035      -3.40701847
H       -0.06261646      -0.15397496      -4.36596085
H        1.18008517      -0.72846180      -3.19641602
O       -2.10484056      -0.94660118       0.48357382
O       -1.72004024       0.12690986      -0.37507455
22
Properties=species:S:1:pos:R:3 energy=-2169.3533062499364 pbc="F F F"
O       -1.61038886       2.62593876       2.41684068
C       -0.83465097       2.44934386       1.57114990
C       -0.57307717       2.66211334       0.14532807
C        0.74291062       2.00600630      -0.28822068
C        0.71325061       0.48255623      -0.10614296
C       -0.39497299      -0.22737616      -0.88752533
H       -0.28694658      -1.32623845      -0.80860518
C       -0.52921731       0.25066837      -2.34105061
O       -1.10031970       1.27894365      -2.60881345
C        0.09289562      -0.63120474      -3.37251985
H       -2.29840956      -0.44039866       1.29911368
H       -1.40926741       2.26237067      -0.47800093
H       -0.57553327       3.74260550      -0.09599487
H        0.93360756       2.26805846      -1.34785527
H        1.58492512       2.43006915       0.29327068
H        1.69749044       0.05843091      -0.39401600
H        0.58497999       0.24938756       0.97831187
H       -0.31590700      -1.65067428      -3.38393670
H       -0.10212856      -0.17779295      -4.36566208
H        1.17638406      -0.72753883      -3.21982640
O       -2.12640455      -0.94492585       0.44378265
O       -1.71067309       0.14118115      -0.37799921
22
Properties=species:S:1:pos:R:3 energy=-2169.3424414004844 pbc="F F F"
O       -1.59516279       2.62221644       2.43202124
C       -0.82684483       2.45216316       1.58038717
C       -0.57545719       2.65992008       0.15031455
C        0.74498170       2.01301477      -0.28495993
C        0.72128997       0.48939157      -0.10258435
C       -0.38532589      -0.22201657      -0.88472347
H       -0.28166357      -1.31947347      -0.79971386
C       -0.51762248       0.25069835      -2.33960804
O       -1.07483653       1.28549453      -2.60823080
C        0.08495942      -0.64324327      -3.37179843
H       -2.32810448      -0.45834280       1.26878194
H       -1.40774308       2.25235420      -0.46722937
H       -0.58795358       3.73969311      -0.09481551
H        0.92955013       2.27593790      -1.34545288
H        1.58674015       2.44137828       0.29322745
H        1.70678036       0.06846008      -0.39168458
H        0.59435275       0.25587767       0.98240784
H       -0.31116323      -1.66700580      -3.36102162
H       -0.14183574      -0.20182916      -4.36400463
H        1.17197777      -0.72625817      -3.24393592
O       -2.14741298      -0.94228891       0.40356066
O       -1.70095887       0.15538203      -0.37930947
22
Properties=species:S:1:pos:R:3 energy=-2169.3302328180566 pbc="F F F"
O       -1.57998591       2.61825518       2.44717963
C       -0.81978759       2.45540865       1.58914288
C       -0.57777171       2.65767880       0.15514444
C        0.74712991       2.01992040      -0.28164116
C        0.72928775       0.49614574      -0.09907937
C       -0.37604251      -0.21652064      -0.88177715
H       -0.27683105      -1.31258569      -0.79091663
C       -0.50611654       0.25073800      -2.33803426
O       -1.04951703       1.29164007      -2.60786311
C        0.07700190      -0.65492768      -3.37078257
H       -2.35718426      -0.47606324       1.23777723
H       -1.40596604       2.24094037      -0.45682276
H       -0.60015622       3.73676094      -0.09372082
H        0.92545611       2.28363479      -1.34302845
H        1.58874212       2.45241217       0.29311226
H        1.71589884       0.07826843      -0.38943992
H        0.60356168       0.26218026       0.98639017
H       -0.30562476      -1.68255331      -3.33831804
H       -0.18165765      -0.22603793      -4.36098460
H        1.16687733      -0.72462960      -3.26869430
O       -2.16791277      -0.93878100       0.36302365
O       -1.69085460       0.16963927      -0.37903913
22
Properties=species:S:1:pos:R:3 energy=-2169.3170204423423 pbc="F F F"
O       -1.56485208       2.61404481       2.46231338
C       -0.81355430       2.45910442       1.59735585
C       -0.57990713       2.65545783       0.15991668
C        0.74935963       2.02671438      -0.27826248
C        0.73724403       0.50281079      -0.09563300
C       -0.36716017      -0.21084790      -0.87868257
H       -0.27247862      -1.30556855      -0.78222045
C       -0.49470930       0.25076931      -2.33633252
O       -1.02442083       1.29739638      -2.60771349
C        0.06903286      -0.66623962      -3.36948463
H       -2.38558073      -0.49352392       1.20612239
H       -1.40400176       2.22791247      -0.44687178
H       -0.61212438       3.73382822      -0.09271843
H        0.92132361       2.29113760      -1.34058572
H        1.59094133       2.46315106       0.29291845
H        1.72483582       0.08784070      -0.38728631
H        0.61259155       0.26828079       0.99024730
H       -0.29930421      -1.69729523      -3.31587079
H       -0.22151396      -0.25037360      -4.35659809
H        1.16109379      -0.72266287      -3.29405126
O       -2.18795084      -0.93449273       0.32228743
O       -1.68031729       0.18407965      -0.37722199
22
Properties=species:S:1:pos:R:3 energy=-2169.303249595928 pbc="F F F"
O       -1.54975519       2.60957512       2.47741999
C       -0.80821999       2.46327456       1.60496491
C       -0.58174987       2.65332551       0.16473025
C        0.75167525       2.03338787      -0.27482198
C        0.74515889       0.50937876      -0.09225023
C       -0.35871622      -0.20495789      -0.87543588
H       -0.26863589      -1.29841549      -0.77363227
C       -0.48341061       0.25077425      -2.33450608
O       -0.99960755       1.30277953      -2.60778509
C        0.06106212      -0.67716072      -3.36791696
H       -2.41322568      -0.51068880       1.17384027
H       -1.40191573       2.21305377      -0.43746713
H       -0.62384122       3.73091419      -0.09181600
H        0.91715072       2.29843479      -1.33812843
H        1.59334806       2.47357524       0.29263938
H        1.73358124       0.09716164      -0.38522804
H        0.62142709       0.27416469       0.99396767
H       -0.29221418      -1.71120997      -3.29372466
H       -0.26132431      -0.27479049      -4.35084119
H        1.15463817      -0.72036776      -3.31995650
O       -2.20757413      -0.92951474       0.28146781
O       -1.66930395       0.19882995      -0.37389185
22
Properties=species:S:1:pos:R:3 energy=-2169.2892526346445 pbc="F F F"
O       -1.53468914       2.60483594       2.49249698
C       -0.80385971       2.46794314       1.61190890
C       -0.58318633       2.65135015       0.16968411
C        0.75408117       2.03993204      -0.27131776
C        0.75303241       0.51584173      -0.08893607
C       -0.35074798      -0.19881016      -0.87203327
H       -0.26533247      -1.29111993      -0.76515908
C       -0.47223030       0.25073482      -2.33255818
O       -0.97513683       1.30780561      -2.60808102
C        0.05309947      -0.68767262      -3.36609191
H       -2.44005093      -0.52752183       1.14095372
H       -1.39977344       2.19614756      -0.42869950
H       -0.63528991       3.72803806      -0.09102119
H        0.91293554       2.30551482      -1.33566032
H        1.59597261       2.48366496       0.29226840
H        1.74212507       0.10621599      -0.38326939
H        0.63005305       0.27981738       0.99753973
H       -0.28436728      -1.72427595      -3.27192449
H       -0.30100836      -0.29924294      -4.34371000
H        1.14752151      -0.71775405      -3.34635974
O       -2.22682955      -0.92393767       0.24068060
O       -1.65777161       0.21401694      -0.36908253
22
Properties=species:S:1:pos:R:3 energy=-2169.2749189478122 pbc="F F F"
O       -1.51964779       2.59981705       2.50754187
C       -0.80054849       2.47313426       1.61812662
C       -0.58410294       2.64960010       0.17487722
C        0.75658177       2.04633804      -0.26774793
C        0.76086467       0.52219175      -0.08569550
C       -0.34329279      -0.19236426      -0.86847092
H       -0.26259796      -1.28367533      -0.75680782
C       -0.46117818       0.25063298      -2.33049207
O       -0.95106828       1.31249072      -2.60860441
C        0.04515472      -0.69775696      -3.36402183
H       -2.46598827      -0.54398696       1.10748558
H       -1.39764037       2.17697713      -0.42065959
H       -0.64645363       3.72521908      -0.09034165
H        0.90867618       2.31236617      -1.33318512
H        1.59882526       2.49340049       0.29179889
H        1.75045723       0.11498850      -0.38141465
H        0.63845418       0.28522432       1.00095191
H       -0.27577612      -1.73647157      -3.25051508
H       -0.34048576      -0.32368529      -4.33520060
H        1.13975486      -0.71483150      -3.37321070
O       -2.24576404      -0.91785213       0.20004162
O       -1.64567726       0.22976739      -0.36282783
22
Properties=species:S:1:pos:R:3 energy=-2169.2592725423874 pbc="F F F"
O       -1.50462259       2.59451314       2.52254545
C       -0.79834468       2.47886360       1.62356803
C       -0.58437817       2.64816015       0.18042353
C        0.75917696       2.05259982      -0.26411163
C        0.76865440       0.52842295      -0.08253181
C       -0.33637831      -0.18558673      -0.86475011
H       -0.26045358      -1.27607655      -0.74858441
C       -0.45026487       0.25045300      -2.32831677
O       -0.92745663       1.31685373      -2.60935311
C        0.03724323      -0.70740152      -3.36172484
H       -2.49097800      -0.56004867       1.07346969
H       -1.39559786       2.15535354      -0.41344402
H       -0.65731854       3.72247327      -0.08978185
H        0.90437092       2.31898076      -1.33070632
H        1.60191338       2.50276619       0.29122508
H        1.75857186       0.12346763      -0.37966700
H        0.64661790       0.29037445       1.00419672
H       -0.26646354      -1.74778737      -3.22953870
H       -0.37967489      -0.34806977      -4.32532248
H        1.13135069      -0.71161591      -3.40044790
O       -2.26442911      -0.91136221       0.15966525
O       -1.63299158       0.24619050      -0.35518483
22
Properties=species:S:1:pos:R:3 energy=-2169.2400268794854 pbc="F F F"
O       -1.48959127       2.58894601       2.53746096
C       -0.79721323       2.48509980       1.62824531
C       -0.58384617       2.64720717       0.18652092
C        0.76184157       2.05872675      -0.26041389
C        0.77639278       0.53454117      -0.07943865
C       -0.32997814      -0.17848335      -0.86090072
H       -0.25887351      -1.26832649      -0.74048885
C       -0.43950523       0.25019184      -2.32607363
O       -0.90432915       1.32092916      -2.61029530
C        0.02941135      -0.71662845      -3.35925128
H       -2.51500792      -0.57567444       1.03900123
H       -1.39381605       2.13124344      -0.40718258
H       -0.66788749       3.71979878      -0.08932850
H        0.90001915       2.32536996      -1.32822593
H        1.60522796       2.51176940       0.29054626
H        1.76648637       0.13166254      -0.37802337
H        0.65454658       0.29527644       1.00728938
H       -0.25650966      -1.75828177      -3.20902325
H       -0.41848692      -0.37233688      -4.31415990
H        1.12232964      -0.70815687      -3.42794732
O       -2.28290207      -0.90464717       0.11965806
O       -1.61976159       0.26329696      -0.34634095
22
Properties=species:S:1:pos:R:3 energy=-2169.2130238029295 pbc="F F F"
O       -1.47452680       2.58314693       2.55222860
C       -0.79708660       2.49179516       1.63219227
C       -0.58232564       2.64695010       0.19339640
C        0.76454171       2.06473360      -0.25666175
C        0.78406834       0.54055627      -0.07640636
C       -0.32404709      -0.17107355      -0.85696258
H       -0.25781560      -1.26043084      -0.73251908
C       -0.42891564       0.24985087      -2.32381523
O       -0.88170355       1.32475699      -2.61138888
C        0.02171621      -0.72547185      -3.35666273
H       -2.53808234      -0.59083277       1.00419675
H       -1.39249593       2.10466750      -0.40201661
H       -0.67816914       3.71718751      -0.08896212
H        0.89562062       2.33155189      -1.32574546
H        1.60875430       2.52042541       0.28976345
H        1.77422630       0.13958962      -0.37647851
H        0.66224778       0.29994577       1.01025299
H       -0.24601454      -1.76803675      -3.18899169
H       -0.45683054      -0.39642301      -4.30182318
H        1.11271517      -0.70451570      -3.45556319
O       -2.30126916      -0.89791244       0.08012386
O       -1.60606086       0.28106327      -0.33652892
22
Properties=species:S:1:pos:R:3 energy=-2169.17176939367 pbc="F F F"
O       -1.45940214       2.57714718       2.56678853
C       -0.79789724       2.49890195       1.63544273
C       -0.57963530       2.64759788       0.20127705
C        0.76724348       2.07063512      -0.25286229
C        0.79166964       0.54647815      -0.07342525
C       -0.31853995      -0.16337675      -0.85297554
H       -0.25723769      -1.25239529      -0.72467307
C       -0.41851245       0.24943148      -2.32159415
O       -0.85959755       1.32837717      -2.61259175
C        0.01421496      -0.73396580      -3.35402073
H       -2.56020558      -0.60549217       0.96917280
H       -1.39183852       2.07564648      -0.39808745
H       -0.68817214       3.71463139      -0.08866325
H        0.89117511       2.33754468      -1.32326641
H        1.61247768       2.52874956       0.28887767
H        1.78181721       0.14726525      -0.37502721
H        0.66972906       0.30439797       1.01311068
H       -0.23507821      -1.77713433      -3.16946696
H       -0.49461444      -0.42026458      -4.28842264
H        1.10253073      -0.70075373      -3.48314972
O       -2.31961664      -0.89136347       0.04116645
O       -1.59196301       0.29946586      -0.32598151
22
Properties=species:S:1:pos:R:3 energy=-2169.1072765074155 pbc="F F F"
O       -1.44419025       2.57097802       2.58108093
C       -0.79957758       2.50637247       1.63803052
C       -0.57559384       2.64935944       0.21038992
C        0.76991298       2.07644608      -0.24902256
C        0.79918521       0.55231669      -0.07048565
C       -0.31341150      -0.15541239      -0.84897943
H       -0.25709760      -1.24422553      -0.71694875
C       -0.40831204       0.24893506      -2.31946298
O       -0.83802885       1.33182969      -2.61386179
C        0.00696474      -0.74214441      -3.35138686
H       -2.58138199      -0.61962115       0.93404596
H       -1.39204486       2.04420113      -0.39553643
H       -0.69790516       3.71212232      -0.08841239
H        0.88668236       2.34336644      -1.32079030
H        1.61638340       2.53675715       0.28788997
H        1.78928464       0.15470581      -0.37366421
H        0.67699800       0.30864854       1.01588557
H       -0.22380075      -1.78565655      -3.15047199
H       -0.53174729      -0.44379798      -4.27406860
H        1.09179979      -0.69693230      -3.51056111
O       -2.33803077      -0.88520570       0.00288964
O       -1.57754163       0.31848118      -0.31493147
22
Properties=species:S:1:pos:R:3 energy=-2169.008413929573 pbc="F F F"
O       -1.42886411       2.56467073       2.59504596
C       -0.80206006       2.51415898       1.63998949
C       -0.57001996       2.65244375       0.22096207
C        0.77251631       2.08218124      -0.24514962
C        0.80660360       0.55808177      -0.06757787
C       -0.30861653      -0.14719990      -0.84501409
H       -0.25735317      -1.23592725      -0.70934407
C       -0.39833077       0.24836301      -2.31747431
O       -0.81701518       1.33515451      -2.61515688
C        0.00002270      -0.75004179      -3.34882270
H       -2.60161588      -0.63318823       0.89893279
H       -1.39331596       2.01035219      -0.39450489
H       -0.70737687       3.70965221      -0.08819008
H        0.88214215       2.34903529      -1.31831863
H        1.62045674       2.54446350       0.28680135
H        1.79665413       0.16192770      -0.37238428
H        0.68406217       0.31271298       1.01860079
H       -0.21228222      -1.79368540      -3.13202973
H       -0.56813779      -0.46695963      -4.25887139
H        1.08054581      -0.69311274      -3.53765158
O       -2.35659780      -0.87964458      -0.03460275
O       -1.56287033       0.33808568      -0.30361157
22
Properties=species:S:1:pos:R:3 energy=-2168.863050668265 pbc="F F F"
O       -1.41339725       2.55825674       2.60862452
C       -0.80527590       2.52221340       1.64135469
C       -0.56273486       2.65705796       0.23321755
C        0.77501986       2.08785551      -0.24125040
C        0.81391332       0.56378337      -0.06469229
C       -0.30410944      -0.13875927      -0.84111915
H       -0.25796194      -1.22750652      -0.70185706
C       -0.38858492       0.24771688      -2.31568024
O       -0.79657356       1.33839128      -2.61643541
C       -0.00655490      -0.75769203      -3.34638879
H       -2.62091192      -0.64616202       0.86394867
H       -1.39585144       1.97412358      -0.39513314
H       -0.71659584       3.70721314      -0.08797669
H        0.87755414       2.35456944      -1.31585272
H        1.62468321       2.55188394       0.28561283
H        1.80395092       0.16894750      -0.37118214
H        0.69092919       0.31660693       1.02127928
H       -0.20062139      -1.80130234      -3.11416290
H       -0.60369538      -0.48968702      -4.24293955
H        1.06879100      -0.68935614      -3.56427688
O       -2.37540236      -0.87488334      -0.07120884
O       -1.54802355       0.35825302      -0.29225336
22
Properties=species:S:1:pos:R:3 energy=-2168.6625991692376 pbc="F F F"
O       -1.39779762       2.55177802       2.62180022
C       -0.80908374       2.53046558       1.64223564
C       -0.55370965       2.66330260       0.24719926
C        0.77740636       2.09349311      -0.23732405
C        0.82110149       0.56943686      -0.06182214
C       -0.29982200      -0.13014391      -0.83732149
H       -0.25886473      -1.21899269      -0.69448953
C       -0.37908522       0.24700966      -2.31410342
O       -0.77668081       1.34156082      -2.61768426
C       -0.01276461      -0.76512827      -3.34408475
H       -2.63929507      -0.65851768       0.82913959
H       -1.39976677       1.93572894      -0.39749846
H       -0.72556523       3.70480758      -0.08774406
H        0.87291302       2.35999036      -1.31338218
H        1.62906073       2.55903494       0.28432439
H        1.81118158       0.17579375      -0.37005010
H        0.69760952       0.32035311       1.02393427
H       -0.18884026      -1.80855379      -3.09688183
H       -0.63837605      -0.51198329      -4.22627568
H        1.05648321      -0.68570910      -3.59038615
O       -2.39443076      -0.87099203      -0.10694269
O       -1.53312639       0.37878942      -0.28101457
22
Properties=species:S:1:pos:R:3 energy=-2168.4094680508524 pbc="F F F"
O       -1.38212648       2.54529281       2.63462294
C       -0.81322963       2.53881121       1.64285722
C       -0.54314778       2.67111289       0.26266931
C        0.77968394       2.09913264      -0.23335767
C        0.82815298       0.57506602      -0.05896509
C       -0.29565089      -0.12145903      -0.83362825
H       -0.25997640      -1.21045110      -0.68724921
C       -0.36983385       0.24627199      -2.31272087
O       -0.75725138       1.34465475      -2.61893457
C       -0.01868488      -0.77238221      -3.34181574
H       -2.65682173      -0.67024050       0.79444383
H       -1.40504697       1.89567598      -0.40158052
H       -0.73427981       3.70245411      -0.08745079
H        0.86820572       2.36532472      -1.31087852
H        1.63360643       2.56593472       0.28293439
H        1.81832376       0.18251347      -0.36897672
H        0.70411807       0.32398521       1.02656381
H       -0.17684184      -1.81543191      -3.08017764
H       -0.67220789      -0.53395334      -4.20871807
H        1.04345497      -0.68219571      -3.61607324
O       -2.41351695      -0.86783427      -0.14199800
O       -1.51838240       0.39924155      -0.26993861
22
Properties=species:S:1:pos:R:3 energy=-2168.1342600994867 pbc="F F F"
O       -1.36644971       2.53886073       2.64714827
C       -0.81744996       2.54714301       1.64345424
C       -0.53127270       2.68040980       0.27936570
C        0.78186290       2.10481394      -0.22933729
C        0.83505252       0.58069531      -0.05611921
C       -0.29148978      -0.11281427      -0.83004489
H       -0.26120959      -1.20195023      -0.68014436
C       -0.36083222       0.24553603      -2.31150568
O       -0.73819435       1.34766216      -2.62022128
C       -0.02440116      -0.77948544      -3.33947881
H       -2.67355101      -0.68131662       0.75979046
H       -1.41166583       1.85449772      -0.40735060
H       -0.74273362       3.70017265      -0.08705434
H        0.86341850       2.37059961      -1.30831167
H        1.63833916       2.57260163       0.28144109
H        1.82535263       0.18915532      -0.36795025
H        0.71047013       0.32753790       1.02916470