22
Properties=species:S:1:pos:R:3 energy=-2169.1849259216374 pbc="F F F"
O        0.75324700       1.95506800       2.53504000
C        0.12499500       2.29091000       1.55596600
C        0.59341800       2.05162800       0.13972700
C        1.75302000       1.05636400       0.05192400
C        1.32197100      -0.39054800       0.32580100
C        0.33988800      -0.97983000      -0.66920900
H        0.30454300      -2.08252200      -0.61315400
C        0.48359000      -0.47135900      -2.09176100
O       -0.23214000       0.39878900      -2.53053600
C        1.55670800      -1.13475400      -2.90093600
H       -0.84293200       2.81165300       1.64455400
H       -0.25817500       1.70326300      -0.49131900
H        0.89258600       3.02322500      -0.30698700
H        2.23964100       1.13855200      -0.93823000
H        2.52639900       1.33869800       0.80126700
H        2.22121600      -1.03509300       0.39181800
H        0.84927200      -0.43946900       1.34020000
H        1.26157000      -2.14990200      -3.20277700
H        1.75718000      -0.57584400      -3.82884300
H        2.50445300      -1.22055300      -2.35365600
O       -1.42178600      -0.71953900       0.81850300
O       -1.10604200      -0.53248100      -0.30026400
22
Properties=species:S:1:pos:R:3 energy=-2169.1722582588386 pbc="F F F"
O        0.74324431       1.92720810       2.54693050
C        0.14773178       2.30838551       1.57289608
C        0.59268856       2.06501591       0.15161448
C        1.74589577       1.06438471       0.04881614
C        1.30963437      -0.38007794       0.32959569
C        0.35294589      -0.98456527      -0.67661717
H        0.32143644      -2.08444464      -0.61230449
C        0.49178469      -0.47415825      -2.09541115
O       -0.21807556       0.40159228      -2.53154545
C        1.55613549      -1.14733821      -2.90859818
H       -0.76962163       2.87984512       1.67572153
H       -0.26855366       1.72109296      -0.46732217
H        0.88971148       3.03595167      -0.29876132
H        2.21870688       1.14472812      -0.94823714
H        2.53142189       1.34139500       0.78726108
H        2.20828700      -1.02240485       0.42031505
H        0.81883162      -0.42114505       1.33573833
H        1.27234232      -2.17107103      -3.17235153
H        1.72820598      -0.61397677      -3.85198045
H        2.51536161      -1.20539991      -2.38349141
O       -1.44739068      -0.77541669       0.78015967
O       -1.11810255      -0.57334476      -0.32530012
22
Properties=species:S:1:pos:R:3 energy=-2169.1393137095374 pbc="F F F"
O        0.73306233       1.90121157       2.55867713
C        0.17082306       2.32560665       1.59003988
C        0.59210984       2.07869730       0.16382521
C        1.73855599       1.07259550       0.04580884
C        1.29717519      -0.36940154       0.33330773
C        0.36603833      -0.98885834      -0.68351796
H        0.33771136      -2.08601887      -0.61112441
C        0.50001986      -0.47699624      -2.09884030
O       -0.20380227       0.40434196      -2.53263428
C        1.55546017      -1.16004158      -2.91587012
H       -0.69508834       2.94530591       1.70632673
H       -0.27868783       1.73927632      -0.44292250
H        0.88696261       3.04894190      -0.29007717
H        2.19733550       1.15133270      -0.95793951
H        2.53611396       1.34421129       0.77297420
H        2.19473594      -1.00917985       0.44872087
H        0.78835983      -0.40266447       1.33072693
H        1.28349643      -2.19146802      -3.14199298
H        1.69914388      -0.65249225      -3.87375450
H        2.52548429      -1.19084987      -2.41366945
O       -1.47172132      -0.83191109       0.74126421
O       -1.13066681      -0.61538299      -0.35220055
22
Properties=species:S:1:pos:R:3 energy=-2169.092663610296 pbc="F F F"
O        0.72274171       1.87706706       2.57029911
C        0.19425547       2.34256582       1.60737190
C        0.59168470       2.09265760       0.17634487
C        1.73100641       1.08099507       0.04289878
C        1.28459611      -0.35852208       0.33693627
C        0.37914789      -0.99271335      -0.68992014
H        0.35338087      -2.08724587      -0.60961779
C        0.50829212      -0.47986676      -2.10205059
O       -0.18932718       0.40703922      -2.53379817
C        1.55468396      -1.17285369      -2.92275171
H       -0.61943100       3.00802399       1.73635593
H       -0.28856895       1.75780228      -0.41813351
H        0.88434916       3.06218551      -0.28094939
H        2.17554189       1.15836218      -0.96733873
H        2.54047357       1.34714370       0.75841707
H        2.18057335      -0.99543213       0.47701753
H        0.75786832      -0.38403804       1.32517321
H        1.29502680      -2.21109494      -3.11172750
H        1.67001822      -0.69136053      -3.89415386
H        2.53481227      -1.17691239      -2.44416040
O       -1.49478579      -0.88898454       0.70181822
O       -1.14371791      -0.65856212      -0.38090310
22
Properties=species:S:1:pos:R:3 energy=-2169.0374962702667 pbc="F F F"
O        0.71232310       1.85476321       2.58181568
C        0.21801566       2.35925542       1.62486667
C        0.59141597       2.10688223       0.18915911
C        1.72325284       1.08958214       0.04008269
C        1.27189977      -0.34744285       0.34048042
C        0.39225711      -0.99613447      -0.69583249
H        0.36845811      -2.08812686      -0.60778863
C        0.51659809      -0.48276361      -2.10504413
O       -0.17465738       0.40968523      -2.53503277
C        1.55380876      -1.18576415      -2.92924285
H       -0.54274849       3.06798795       1.76579546
H       -0.29818848       1.77666003      -0.39296876
H        0.88188091       3.07567234      -0.27139283
H        2.15334108       1.16581300      -0.97643638
H        2.54449908       1.35018904       0.74360041
H        2.16580976      -0.98117579       0.50518707
H        0.72736878      -0.36527653       1.31908463
H        1.30692792      -2.22995374      -3.08158125
H        1.64085352      -0.73055166      -3.91316724
H        2.54333678      -1.16359696      -2.47493449
O       -1.51659194      -0.94659938       0.66182330
O       -1.15723899      -0.70284858      -0.41134559
22
Properties=species:S:1:pos:R:3 energy=-2168.977693537964 pbc="F F F"
O        0.70184714       1.83428866       2.59324607
C        0.24209027       2.37566784       1.64249870
C        0.59130651       2.12135661       0.20225358
C        1.71530106       1.09835541       0.03735726
C        1.25908884      -0.33616712       0.34393932
C        0.40534856      -0.99912584      -0.70126379
H        0.38295620      -2.08866304      -0.60564094
C        0.52493441      -0.48568057      -2.10782305
O       -0.15979993       0.41228117      -2.53633375
C        1.55283650      -1.19876257      -2.93534343
H       -0.46513966       3.12518641       1.79463164
H       -0.30753786       1.79583876      -0.36744180
H        0.87956764       3.08939223      -0.26142233
H        2.13074810       1.17368157      -0.98523407
H        2.54818884       1.35334416       0.72853492
H        2.15045572      -0.96642496       0.53321155
H        0.69687290      -0.34639071       1.31246861
H        1.31919426      -2.24804639      -3.05158040
H        1.61167429      -0.77003574      -3.93078333
H        2.55104905      -1.15091309      -2.50596198
O       -1.53714763      -1.00471797       0.62128105
O       -1.17121319      -0.74820881      -0.44346584
22
Properties=species:S:1:pos:R:3 energy=-2168.9160209912643 pbc="F F F"
O        0.69135447       1.81563204       2.60460950
C        0.26646592       2.39179546       1.66024250
C        0.59135916       2.13606617       0.21561396
C        1.70715683       1.10731358       0.03471921
C        1.24616597      -0.32469818       0.34731210
C        0.41840479      -1.00169162      -0.70622282
H        0.39688825      -2.08885560      -0.60317872
C        0.53329769      -0.48861144      -2.11038946
O       -0.14476188       0.41482822      -2.53769678
C        1.55176907      -1.21183853      -2.94105334
H       -0.38670341       3.17960795       1.82285080
H       -0.31660854       1.81532766      -0.34156615
H        0.87741913       3.10333502      -0.25105272
H        2.10777797       1.18196435      -0.99373338
H        2.55154120       1.35660587       0.71323134
H        2.13452176      -0.95119374       0.56107303
H        0.66639236      -0.32739136       1.30533260
H        1.33182030      -2.26537486      -3.02175110
H        1.58250505      -0.80978284      -3.94699084
H        2.55794030      -1.13887029      -2.53721312
O       -1.55646072      -1.06330265       0.58019307
O       -1.18562365      -0.79460922      -0.47720167
22
Properties=species:S:1:pos:R:3 energy=-2168.854419505843 pbc="F F F"
O        0.68088573       1.79878201       2.61592521
C        0.29112927       2.40763070       1.67807260
C        0.59157677       2.15099634       0.22922588
C        1.69882595       1.11645535       0.03216524
C        1.23313379      -0.31303930       0.35059790
C        0.43140834      -1.00383596      -0.71071834
H        0.41026741      -2.08870575      -0.60040599
C        0.54168455      -0.49154999      -2.11274549
O       -0.12955032       0.41732756      -2.53911752
C        1.55060840      -1.22498164      -2.94637247
H       -0.30753861       3.23124119       1.85043927
H       -0.32539196       1.83511592      -0.31535538
H        0.87544514       3.11749054      -0.24029884
H        2.08444573       1.19065775      -1.00193592
H        2.55455452       1.35997100       0.69770036
H        2.11801842      -0.93549626       0.58875356
H        0.63593884      -0.30828925       1.29768403
H        1.34480053      -2.28194111      -2.99211952
H        1.55337031      -0.84976302      -3.96177847
H        2.56400177      -1.12747807      -2.56865817
O       -1.57453906      -1.12231577       0.53856098
O       -1.20045352      -0.84201626      -0.51249091
22
Properties=species:S:1:pos:R:3 energy=-2168.7943595484 pbc="F F F"
O        0.67048157       1.78372720       2.62721242
C        0.31606694       2.42316594       1.69596351
C        0.59196219       2.16613252       0.24307502
C        1.69031420       1.12577943       0.02969205
C        1.21999497      -0.30119376       0.35379584
C        0.44434178      -1.00556302      -0.71475915
H        0.42310678      -2.08821469      -0.59732675
C        0.55009162      -0.49449002      -2.11489327
O       -0.11417230       0.41978037      -2.54059164
C        1.54935639      -1.23818149      -2.95130072
H       -0.22774412       3.28007473       1.87738339
H       -0.33387957       1.85519275      -0.28882303
H        0.87365545       3.13184863      -0.22917555
H        2.06076640       1.19975822      -1.00984329
H        2.55722717       1.36343639       0.68195272
H        2.10095623      -0.91934662       0.61623521
H        0.60552404      -0.28909517       1.28953034
H        1.35812942      -2.29774710      -2.96271181
H        1.52429460      -0.88994638      -3.97513493
H        2.56922468      -1.11674591      -2.60026738
O       -1.59139052      -1.18171967       0.49638637
O       -1.21568592      -0.89039634      -0.54927136
22
Properties=species:S:1:pos:R:3 energy=-2168.737181545568 pbc="F F F"
O        0.66018263       1.77045626       2.63849038
C        0.34126558       2.43839357       1.71388974
C        0.59251826       2.18146016       0.25714703
C        1.68162735       1.13528453       0.02729636
C        1.20675215      -0.28916485       0.35690507
C        0.45718766      -1.00687695      -0.71835400
H        0.43541950      -2.08738362      -0.59394501
C        0.55851551      -0.49742533      -2.11683491
O       -0.09863488       0.42218781      -2.54211481
C        1.54801496      -1.25142770      -2.95583797
H       -0.14741882       3.32609717       1.90366946
H       -0.34206281       1.87554731      -0.26198263
H        0.87205985       3.14639912      -0.21769767
H        2.03675500       1.20926219      -1.01745708
H        2.55955748       1.36699885       0.66599911
H        2.08334573      -0.90275895       0.64350002
H        0.57515963      -0.26981989       1.28087897
H        1.37180146      -2.31279479      -2.93355413
H        1.49530243      -0.93030297      -3.98704891
H        2.57360026      -1.10668334      -2.63201101
O       -1.60702294      -1.24147669       0.45367085
O       -1.23130399      -0.93971590      -0.58748085
22
Properties=species:S:1:pos:R:3 energy=-2168.6843260099818 pbc="F F F"
O        0.65002955       1.75895781       2.64977829
C        0.36671182       2.45330599       1.73182581
C        0.59324783       2.19696467       0.27142758
C        1.67277120       1.14496934       0.02497487
C        1.19340800      -0.27695585       0.35992470
C        0.46992854      -1.00778191      -0.72151169
H        0.44721869      -2.08621374      -0.59026479
C        0.56695285      -0.50034969      -2.11857254
O       -0.08294515       0.42455108      -2.54368268
C        1.54658602      -1.26470984      -2.95998413
H       -0.06666159       3.36929712       1.92928384
H       -0.34993313       1.89616882      -0.23484774
H        0.87066811       3.16113185      -0.20588005
H        2.01242658       1.21916608      -1.02477890
H        2.56154383       1.37065522       0.64985026
H        2.06519747      -0.88574736       0.67053005
H        0.54485731      -0.25047417       1.27173735
H        1.38581112      -2.32708615      -2.90467265
H        1.46641832      -0.97080288      -3.99750911
H        2.57711975      -1.09729985      -2.66385930
O       -1.62144420      -1.30154918       0.41041602
O       -1.24729089      -0.98994136      -0.62705720
22
Properties=species:S:1:pos:R:3 energy=-2168.6373931121075 pbc="F F F"
O        0.64006298       1.74922052       2.66109541
C        0.39239231       2.46789560       1.74974624
C        0.59415374       2.21263148       0.28590231
C        1.66375152       1.15483257       0.02272428
C        1.17996514      -0.26457003       0.36285388
C        0.48254696      -1.00828204      -0.72424099
H        0.45851748      -2.08470626      -0.58629008
C        0.57540026      -0.50325690      -2.12010828
O       -0.06711016       0.42687134      -2.54529092
C        1.54507149      -1.27801754      -2.96373909
H        0.01442870       3.40966317       1.95421283
H       -0.35748199       1.91704646      -0.20743190
H        0.86948999       3.17603666      -0.19373752
H        1.98779614       1.22946633      -1.03181033
H        2.56318455       1.37440233       0.63351688
H        2.04652197      -0.86832596       0.69730736
H        0.51462876      -0.23106880       1.26211291
H        1.40015290      -2.34062314      -2.87609351
H        1.43766678      -1.01141618      -4.00650425
H        2.57977436      -1.08860495      -2.69578250
O       -1.63466215      -1.36189949       0.36662349
O       -1.26362974      -1.04103917      -0.66793822
22
Properties=species:S:1:pos:R:3 energy=-2168.5980450946377 pbc="F F F"
O        0.63032356       1.74123301       2.67246095
C        0.41829367       2.48215479       1.76762555
C        0.59523885       2.22844601       0.30055689
C        1.65457409       1.16487293       0.02054131
C        1.16642625      -0.25201067       0.36569174
C        0.49502549      -1.00838151      -0.72655067
H        0.46932899      -2.08286237      -0.58202490
C        0.58385437      -0.50614075      -2.12144426
O       -0.05113697       0.42914978      -2.54693521
C        1.54347327      -1.29134038      -2.96710273
H        0.09575318       3.44718395       1.97844278
H       -0.36470082       1.93816942      -0.17974865
H        0.86853529       3.19110338      -0.18128494
H        1.96287874       1.24015938      -1.03855297
H        2.56447802       1.37823699       0.61700969
H        2.02732977      -0.85050888       0.72381401
H        0.48448567      -0.21161456       1.25201311
H        1.41482125      -2.35340772      -2.84784289
H        1.40907234      -1.05211295      -4.01402302
H        2.58155533      -1.08060814      -2.72775088
O       -1.64668465      -1.42248996       0.32229485
O       -1.28030368      -1.09297574      -0.71006174
22
Properties=species:S:1:pos:R:3 energy=-2168.5678137605755 pbc="F F F"
O        0.62085193       1.73498392       2.68389415
C        0.44440255       2.49607595       1.78543824
C        0.59650600       2.24439368       0.31537698
C        1.64524470       1.17508912       0.01842266
C        1.15279396      -0.23928106       0.36843739
C        0.50734668      -1.00808447      -0.72844951
H        0.47966634      -2.08068328      -0.57747325
C        0.59231179      -0.50899502      -2.12258258
O       -0.03503266       0.43138757      -2.54861120
C        1.54179328      -1.30466796      -2.97007495
H        0.17721297       3.48184804       2.00196001
H       -0.37158107       1.95952690      -0.15181154
H        0.86781378       3.20632186      -0.16853714
H        1.93768938       1.25124165      -1.04500843
H        2.56542258       1.38215604       0.60033939
H        2.00763141      -0.83231021       0.75003204
H        0.45443972      -0.19212221       1.24144536
H        1.42981068      -2.36544186      -2.81994695
H        1.38065950      -1.09286327      -4.02005413
H        2.58245389      -1.07331894      -2.75973468
O       -1.65751955      -1.48328295       0.27743171
O       -1.29729586      -1.14571751      -0.75336558
22
Properties=species:S:1:pos:R:3 energy=-2168.54787992121 pbc="F F F"
O        0.61168874       1.73046191       2.69541423
C        0.47070559       2.50965148       1.80315884
C        0.59795803       2.26045993       0.33034823
C        1.63576912       1.18547984       0.01636504
C        1.13907093      -0.22638447       0.37108999
C        0.51949308      -1.00739506      -0.72994629
H        0.48954267      -2.07817019      -0.57263915
C        0.60076914      -0.51181351      -2.12352539
O       -0.01880429       0.43358589      -2.55031456
C        1.54003342      -1.31798989      -2.97265564
H        0.25870920       3.51364404       2.02475085
H       -0.37811418       1.98110808      -0.12363411
H        0.86733522       3.22168192      -0.15550895
H        1.91224310       1.26270959      -1.05117831
H        2.56601660       1.38615631       0.58351672
H        1.98743743      -0.81374409       0.77594352
H        0.42450261      -0.17260254       1.23041712
H        1.44511566      -2.37672753      -2.79243183
H        1.35245279      -1.13363720      -4.02458628
H        2.58246126      -1.06674683      -2.79170415
O       -1.66717471      -1.54424078       0.23203568
O       -1.31458941      -1.19923090      -0.79778755
22
Properties=species:S:1:pos:R:3 energy=-2168.5388792734743 pbc="F F F"
O        0.60287462       1.72765560       2.70704043
C        0.49718943       2.52287378       1.82076185
C        0.59959780       2.27663016       0.34545630
C        1.62615315       1.19604380       0.01436515
C        1.12525981      -0.21332419       0.37364866
C        0.53144724      -1.00631745      -0.73104979
H        0.49897108      -2.07532430      -0.56752660
C        0.60922306      -0.51459000      -2.12427479
O       -0.00245893       0.43574592      -2.55204095
C        1.53819563      -1.33129576      -2.97484470
H        0.34014299       3.54256058       2.04680162
H       -0.38429162       2.00290215      -0.09522990
H        0.86710941       3.23717340      -0.14221523
H        1.88655493       1.27455961      -1.05706419
H        2.56625842       1.39023462       0.56655237
H        1.96675836      -0.79482462       0.80153050
H        0.39468600      -0.15306631       1.21893581
H        1.46073066      -2.38726667      -2.76532371
H        1.32447672      -1.17440483      -4.02760816
H        2.58156868      -1.06090133      -2.82362956
O       -1.67565799      -1.60532582       0.18610835
O       -1.33216747      -1.25348234      -0.84326547
22
Properties=species:S:1:pos:R:3 energy=-2167.823535651284 pbc="F F F"
O        0.59445024       1.72655365       2.71879198
C        0.52384070       2.53573523       1.83822181
C        0.60142815       2.29288982       0.36068686
C        1.61640256       1.20677970       0.01241970
C        1.11136326      -0.20010350       0.37611253
C        0.54319173      -1.00485579      -0.73176877
H        0.50796472      -2.07214681      -0.56213961
C        0.61767016      -0.51731829      -2.12483291
O        0.01399636       0.43786884      -2.55378605
C        1.53628179      -1.34457518      -2.97664202
H        0.42141548       3.56858624       2.06809865
H       -0.39010481       2.02489832      -0.06661247
H        0.86714611       3.25278614      -0.12867081
H        1.86063990       1.28678816      -1.06266767
H        2.56614640       1.39438780       0.54945707
H        1.94560474      -0.77556592       0.82677504
H        0.36500160      -0.13352431       1.20700888
H        1.47665017      -2.39706127      -2.73864874
H        1.29675581      -1.21513622      -4.02910849
H        2.57976737      -1.05579194      -2.85548115
O       -1.68297725      -1.66650040       0.13965133
O       -1.35001319      -1.30843827      -0.88973717
22
Properties=species:S:1:pos:R:3 energy=-2167.66851517066 pbc="F F F"
O        0.58645621       1.72714469       2.73068811
C        0.55064604       2.54822823       1.85551322
C        0.60345193       2.30922431       0.37602556
C        1.60652313       1.21768625       0.01052539
C        1.09738392      -0.18672567       0.37848074
C        0.55470910      -1.00301423      -0.73211203
H        0.51653670      -2.06863892      -0.55648219
C        0.62610705      -0.51999216      -2.12520188
O        0.03055450       0.43995582      -2.55554551
C        1.53429384      -1.35781774      -2.97804749
H        0.50242778       3.59170963       2.08862828
H       -0.39554521       2.04708577      -0.03779535
H        0.86745510       3.26850998      -0.11489053
H        1.83451303       1.29939167      -1.06799036
H        2.56567890       1.39861268       0.53224153
H        1.92398711      -0.75598211       0.85165920
H        0.33546109      -0.11398730       1.19464375
H        1.49286867      -2.40611328      -2.71243308
H        1.26931458      -1.25580146      -4.02907597
H        2.57704857      -1.05142817      -2.88722917
O       -1.68914035      -1.72772687       0.09266623
O       -1.36810969      -1.36406511      -0.93714045
22
Properties=species:S:1:pos:R:3 energy=-2167.5278458896246 pbc="F F F"
O        0.57893320       1.72941736       2.74274804
C        0.57759209       2.56034518       1.87261060
C        0.60567199       2.32561907       0.39145806
C        1.59652064       1.22876214       0.00867894
C        1.08332443      -0.17319399       0.38075242
C        0.56598189      -1.00079693      -0.73208832
H        0.52470015      -2.06480184      -0.55055835
C        0.63453038      -0.52260540      -2.12538382
O        0.04720845       0.44200804      -2.55731500
C        1.53223367      -1.37101303      -2.97906100
H        0.58308103       3.61191936       2.10837682
H       -0.40060426       2.06945369      -0.00879209
H        0.86804616       3.28433474      -0.10088923
H        1.80818935       1.31236657      -1.07303385
H        2.56485428       1.40290608       0.51491646
H        1.90191600      -0.73608730       0.87616502
H        0.30607615      -0.09446607       1.18184788
H        1.50938064      -2.41442466      -2.68670289
H        1.24217754      -1.29637061      -4.02749929
H        2.57340349      -1.04781952      -2.91884388
O       -1.69415514      -1.78896758       0.04515465
O       -1.38644012      -1.42032930      -0.98541315
22
Properties=species:S:1:pos:R:3 energy=-2167.323952114738 pbc="F F F"
O        0.57192183       1.73336030       2.75499101
C        0.60466549       2.57207847       1.88948846
C        0.60809116       2.34205952       0.40697002
C        1.58640088       1.24000609       0.00687705
C        1.06918747      -0.15951173       0.38292669
C        0.57699267      -0.99820804      -0.73170644
H        0.53246819      -2.06063676      -0.54437209
C        0.64293675      -0.52515180      -2.12538084
O        0.06395112       0.44402668      -2.55909020
C        1.53010321      -1.38415067      -2.97968244
H        0.66327634       3.62920403       2.12733062
H       -0.40527342       2.09199127       0.02038376
H        0.86892906       3.30025028      -0.08668176
H        1.78168389       1.32570929      -1.07779974
H        2.56367089       1.40726483       0.49749258
H        1.87940195      -0.71589561       0.90027457
H        0.27685847      -0.07497139       1.16862868
H        1.52618057      -2.42199738      -2.66148433
H        1.21536922      -1.33681377      -4.02436717
H        2.56882337      -1.04497549      -2.95029553
O       -1.69802949      -1.85018487      -0.00288181
O       -1.40498762      -1.47719726      -1.03449308
22
Properties=species:S:1:pos:R:3 energy=-2167.8270714320965 pbc="F F F"
O        0.56546277       1.73896216       2.76743624
C        0.63185287       2.58342049       1.90612133
C        0.61071231       2.35853108       0.42254709
C        1.57616963       1.25141680       0.00511643
C        1.05497567      -0.14568218       0.38500269
C        0.58772399      -0.99525172      -0.73097516
H        0.53985395      -2.05614489      -0.53792743
C        0.65132278      -0.52762515      -2.12519508
O        0.08077545       0.44601292      -2.56086675
C        1.52790436      -1.39722025      -2.97991172
H        0.74291486       3.64355224       2.14547599
H       -0.40954412       2.11468771       0.04971866
H        0.87011358       3.31624642      -0.07228295
H        1.75501168       1.33941627      -1.08228963
H        2.56212707       1.41168576       0.47998061
H        1.85645550      -0.69542114       0.92396990
H        0.24781974      -0.05551404       1.15499361
H        1.54326292      -2.42883340      -2.63680356
H        1.18891412      -1.37710099      -4.01966830
H        2.56329944      -1.04290559      -2.98155438
O       -1.70077125      -1.91134109      -0.05144155
O       -1.42373533      -1.53463541      -1.08431806
22
Properties=species:S:1:pos:R:3 energy=-2167.845241620547 pbc="F F F"
O        0.55959664       1.74621157       2.78010298
C        0.65914088       2.59436364       1.92248371
C        0.61353827       2.37501918       0.43817494
C        1.56583267       1.26299297       0.00339378
C        1.04069168      -0.13170862       0.38697956
C        0.59815840      -0.99193211      -0.72990325
H        0.54687055      -2.05132743      -0.53122837
C        0.65968511      -0.53001924      -2.12482864
O        0.09767438       0.44796793      -2.56264033
C        1.52563904      -1.41021137      -2.97974871
H        0.82189769       3.65495259       2.16279927
H       -0.41340781       2.13753220       0.07919908
H        0.87160950       3.33231299      -0.05770765
H        1.72818775       1.35348394      -1.08650511
H        2.56022121       1.41616570       0.46239126
H        1.83308719      -0.67467803       0.94723307
H        0.21897164      -0.03610479       1.14095010
H        1.56062218      -2.43493468      -2.61268675
H        1.16283676      -1.41720236      -4.01339138
H        2.55682293      -1.04161933      -3.01259067
O       -1.70238827      -1.97239858      -0.10052296
O       -1.44266638      -1.59261020      -1.13482590
22
Properties=species:S:1:pos:R:3 energy=-2167.8686108344646 pbc="F F F"
O        0.55436409       1.75509719       2.79301044
C        0.68651615       2.60490032       1.93855012
C        0.61657189       2.39150924       0.45383923
C        1.55539578       1.27473331       0.00170581
C        1.02633816      -0.11759432       0.38885642
C        0.60827846      -0.98825338      -0.72849949
H        0.55353112      -2.04618558      -0.52427892
C        0.66802035      -0.53232785      -2.12428367
O        0.11464084       0.44989290      -2.56440661
C        1.52330916      -1.42311363      -2.97919332
H        0.90012598       3.66339370       2.17928678
H       -0.41685594       2.16051392       0.10881145
H        0.87342659       3.34843985      -0.04297069
H        1.70122712       1.36790873      -1.09044778
H        2.55795163       1.42070148       0.44473524
H        1.80930755      -0.65368037       0.97004613
H        0.19032585      -0.01675441       1.12650558
H        1.57825284      -2.44030319      -2.58916004
H        1.13716167      -1.45708794      -4.00552513
H        2.54938506      -1.04112620      -3.04337466
O       -1.70288843      -2.03331969      -0.15012444
O       -1.46176391      -1.65108805      -1.18595444
22
Properties=species:S:1:pos:R:3 energy=-2167.894905208344 pbc="F F F"
O        0.54980577       1.76560764       2.80617785
C        0.71396531       2.61502291       1.95429509
C        0.61981602       2.40798668       0.46952561
C        1.54486474       1.28663652       0.00004922
C        1.01191776      -0.10334257       0.39063241
C        0.61806672      -0.98421967      -0.72677267
H        0.55984879      -2.04072055      -0.51708310
C        0.67632513      -0.53454479      -2.12356227
O        0.13166777       0.45178899      -2.56616124
C        1.52091663      -1.43591663      -2.97824544
H        0.97750084       3.66886415       2.19492485
H       -0.41987996       2.18362208       0.13854224
H        0.87557462       3.36461682      -0.02808692
H        1.67414482       1.38268707      -1.09411924
H        2.55531671       1.42528991       0.42702327
H        1.78512711      -0.63244229       0.99239114
H        0.16189408       0.00252632       1.11166750