20
Properties=species:S:1:pos:R:3 energy=-1589.099610135703 pbc="F F F"
O        0.70329200      -0.48562000      -0.22595700
C        1.88279400      -0.34306000       0.00339300
C        2.77173400      -1.52425300       0.34781500
C        3.90579300      -1.71056800      -0.66300300
C        4.84069200      -0.49213900      -0.78056100
C        5.47353400      -0.15615400       0.50916000
H        6.19127300      -0.83386300       0.94313800
C        5.09815600       1.07514800       1.22118500
O        4.09247400       1.70318200       0.93808300
C        6.01789300       1.51067700       2.32512000
H        2.37804800       0.64505800      -0.00879200
H        3.17780100      -1.37996300       1.36897400
H        2.16035200      -2.45005800       0.39643900
H        4.49404000      -2.60728200      -0.38224000
H        3.47808200      -1.92999700      -1.66321700
H        5.62788100      -0.70835200      -1.53765600
H        4.27370500       0.37808200      -1.18423300
H        6.04139000       0.78421800       3.14783100
H        7.04945900       1.64199600       1.97342300
H        5.69361300       2.47264200       2.75278100
20
Properties=species:S:1:pos:R:3 energy=-1589.095522515055 pbc="F F F"
O        0.70920005      -0.45986914      -0.17756857
C        1.88992637      -0.33872617       0.02662610
C        2.76929774      -1.53944637       0.33347859
C        3.91149571      -1.71304917      -0.66848599
C        4.83932427      -0.49041665      -0.77900488
C        5.47360473      -0.15449423       0.50942911
H        6.17558469      -0.83785991       0.95381164
C        5.10274933       1.08396370       1.21465705
O        4.10632563       1.72318172       0.92152366
C        6.01665963       1.51426594       2.32421153
H        2.38707631       0.64610917       0.01539424
H        3.15909879      -1.43385947       1.36159705
H        2.13908998      -2.45054887       0.34237639
H        4.50070297      -2.60694171      -0.38143045
H        3.49371155      -1.93698921      -1.67302791
H        5.62912371      -0.70160954      -1.53387552
H        4.27049882       0.37759319      -1.18441899
H        6.02735028       0.79266307       3.15128652
H        7.05181681       1.63365397       1.98032443
H        5.69936863       2.48207368       2.74477899
20
Properties=species:S:1:pos:R:3 energy=-1589.0854130386122 pbc="F F F"
O        0.71566467      -0.43576369      -0.12854360
C        1.89796478      -0.33472042       0.05003826
C        2.76620072      -1.55390870       0.31877700
C        3.91681549      -1.71551477      -0.67390897
C        4.83780796      -0.48875644      -0.77751740
C        5.47257418      -0.15286315       0.51006493
H        6.15968641      -0.84153846       0.96434173
C        5.10726259       1.09276855       1.20818702
O        4.12063910       1.74307062       0.90469623
C        6.01545873       1.51793536       2.32332261
H        2.39750812       0.64562346       0.03961986
H        3.13978601      -1.48707637       1.35288338
H        2.11829399      -2.44951194       0.28841626
H        4.50695503      -2.60646539      -0.38025220
H        3.50927923      -1.94400989      -1.68258795
H        5.63035182      -0.69486826      -1.53002988
H        4.26717859       0.37712370      -1.18456753
H        6.01319831       0.80134231       3.15467653
H        7.05411375       1.62531485       1.98736478
H        5.70526651       2.49151266       2.73670191
20
Properties=species:S:1:pos:R:3 energy=-1589.0719239002344 pbc="F F F"
O        0.72269207      -0.41329027      -0.07894006
C        1.90683470      -0.33107262       0.07359237
C        2.76247209      -1.56765583       0.30372961
C        3.92175978      -1.71796151      -0.67926407
C        4.83614283      -0.48715490      -0.77609135
C        5.47048035      -0.15125677       0.51105890
H        6.14360203      -0.84490442       0.97472573
C        5.11170415       1.10155524       1.20177320
O        4.13540913       1.76282777       0.88761580
C        6.01428838       1.52168374       2.32245091
H        2.40930962       0.64366132       0.06388792
H        3.11988554      -1.53958308       1.34283991
H        2.09797267      -2.44697537       0.23461145
H        4.51279375      -2.60585674      -0.37871108
H        3.52477418      -1.95105362      -1.69188973
H        5.63155498      -0.68813396      -1.52611818
H        4.26374373       0.37667407      -1.18467654
H        5.99894009       0.81025613       3.15799317
H        7.05634043       1.61698178       1.99454182
H        5.71130550       2.50095304       2.72855324
20
Properties=species:S:1:pos:R:3 energy=-1589.0569882270984 pbc="F F F"
O        0.73028844      -0.39243546      -0.02881589
C        1.91646162      -0.32781261       0.09725134
C        2.75814101      -1.58070359       0.28835575
C        3.92633601      -1.72038606      -0.68454346
C        4.83432859      -0.48560851      -0.77471951
C        5.46736121      -0.14967111       0.51240247
H        6.12735539      -0.84796356       0.98496110
C        5.11608242       1.11031644       1.19541386
O        4.15063045       1.78243223       0.87029746
C        6.01314663       1.52550955       2.32159410
H        2.42244703       0.64028320       0.08820145
H        3.09942026      -1.59134897       1.33147355
H        2.07813467      -2.44296726       0.18101476
H        4.51821670      -2.60511946      -0.37681295
H        3.54018553      -1.95811501      -1.70092584
H        5.63272282      -0.68141240      -1.52213953
H        4.26019363       0.37624484      -1.18474396
H        5.98458166       0.81940493       3.16122857
H        7.05848746       1.60865791       2.00185328
H        5.71748448       2.51038889       2.72033647
20
Properties=species:S:1:pos:R:3 energy=-1589.0419318065544 pbc="F F F"
O        0.73845998      -0.37318586       0.02177096
C        1.92677101      -0.32497025       0.12097807
C        2.75323664      -1.59306781       0.27267480
C        3.93055163      -1.72278513      -0.68973929
C        4.83236501      -0.48411379      -0.77339466
C        5.46325475      -0.14810217       0.51408707
H        6.11097034      -0.85072166       0.99504531
C        5.12040577       1.11904482       1.18910725
O        4.16629779       1.80186307       0.85275630
C        6.01203156       1.52941125       2.32074987
H        2.43688654       0.63554955       0.11256351
H        3.07841307      -1.64234341       1.31879120
H        2.05878863      -2.43751575       0.12767901
H        4.52322142      -2.60425725      -0.37456362
H        3.55550241      -1.96518862      -1.70968888
H        5.63384499      -0.67470936      -1.51809303
H        4.25652770       0.37583657      -1.18476774
H        5.97012902       0.82878909       3.16437487
H        7.06054545       1.60034640       2.00929690
H        5.72380231       2.51981429       2.71205509
20
Properties=species:S:1:pos:R:3 energy=-1589.0275778030232 pbc="F F F"
O        0.74721289      -0.35552806       0.07276253
C        1.93768835      -0.32257539       0.14473545
C        2.74778812      -1.60476432       0.25670611
C        3.93441408      -1.72515540      -0.69484369
C        4.83025180      -0.48266724      -0.77210959
C        5.45819894      -0.14654596       0.51610415
H        6.09447073      -0.85318449       1.00497581
C        5.12468260       1.12773307       1.18285165
O        4.18240589       1.82109936       0.83500743
C        6.01094123       1.53338733       2.31991588
H        2.45259438       0.62952084       0.13697716
H        3.05688684      -1.69253577       1.30479978
H        2.03994319      -2.43064898       0.07465702
H        4.52780548      -2.60327381      -0.37196895
H        3.57071394      -1.97226905      -1.71817143
H        5.63491113      -0.66803062      -1.51397778
H        4.25274534       0.37544978      -1.18474580
H        5.95558820       0.83840902       3.16742421
H        7.06250499       1.59205038       2.01687044
H        5.73025787       2.52922332       2.70371260
20
Properties=species:S:1:pos:R:3 energy=-1589.0143503223746 pbc="F F F"
O        0.75655338      -0.33944866       0.12410087
C        1.94913913      -0.32065790       0.16848639
C        2.74182460      -1.61580896       0.24046904
C        3.93793080      -1.72749357      -0.69984881
C        4.82798872      -0.48126538      -0.77085706
C        5.45223178      -0.14499850       0.51844516
H        6.07788042      -0.85535782       1.01475007
C        5.12892129       1.13637387       1.17664533
O        4.19894946       1.84012014       0.81706592
C        6.00987371       1.53743626       2.31908981
H        2.46953675       0.62225750       0.16144543
H        3.03486447      -1.74189544       1.28950621
H        2.02160699      -2.42239506       0.02200162
H        4.53196645      -2.60217284      -0.36903476
H        3.58580925      -1.97935088      -1.72636609
H        5.63591088      -0.66138197      -1.50979289
H        4.24884595       0.37508503      -1.18467609
H        5.94096522       0.84826511       3.17036871
H        7.06435671       1.58377300       2.02457165
H        5.73685002       2.53861006       2.69531248
20
Properties=species:S:1:pos:R:3 energy=-1589.0023731648091 pbc="F F F"
O        0.76648764      -0.32493425       0.17572804
C        1.96104883      -0.31924761       0.19219380
C        2.73537526      -1.62621755       0.22398295
C        3.94110924      -1.72979632      -0.70474682
C        4.82557550      -0.47990470      -0.76962988
C        5.44539124      -0.14345580       0.52110154
H        6.06122326      -0.85724742       1.02436554
C        5.13313023       1.14495988       1.17048656
O        4.21592324       1.85890450       0.79894688
C        6.00882707       1.54155650       2.31826934
H        2.48767985       0.61382000       0.18597140
H        3.01236884      -1.79039178       1.27291739
H        2.00378868      -2.41278214      -0.03023439
H        4.53570188      -2.60095803      -0.36576691
H        3.60077749      -1.98642870      -1.73426547
H        5.63683389      -0.65476918      -1.50553745
H        4.24482894       0.37474285      -1.18455654
H        5.92626609       0.85835776       3.17320052
H        7.06609121       1.57551741       2.03239826
H        5.74357763       2.54796859       2.68685823
20
Properties=species:S:1:pos:R:3 energy=-1588.9915607114356 pbc="F F F"
O        0.77702187      -0.31197143       0.22758607
C        1.97334292      -0.31837439       0.21582056
C        2.72846922      -1.63600592       0.20726720
C        3.94395684      -1.73206036      -0.70952985
C        4.82301189      -0.47858172      -0.76842081
C        5.43771530      -0.14191387       0.52406473
H        6.04452311      -0.85885908       1.03381968
C        5.13731782       1.15348379       1.16437361
O        4.23332197       1.87743149       0.78066541
C        6.00779937       1.54574654       2.31745213
H        2.50698990       0.60426879       0.21055809
H        2.98942283      -1.83799417       1.25504024
H        1.98649690      -2.40183834      -0.08199818
H        4.53900934      -2.59963310      -0.36217121
H        3.61560776      -1.99349710      -1.74186215
H        5.63766978      -0.64819802      -1.50121056
H        4.24069370       0.37442379      -1.18438508
H        5.91149683       0.86868736       3.17591178
H        7.06769909       1.56728675       2.04034803
H        5.75043957       2.55729298       2.67835333
20
Properties=species:S:1:pos:R:3 energy=-1588.9816984943927 pbc="F F F"
O        0.78816228      -0.30054680       0.27961701
C        1.98594689      -0.31806810       0.23932959
C        2.72113566      -1.64518991       0.19034114
C        3.94648103      -1.73428237      -0.71419005
C        4.82029761      -0.47729294      -0.76722265
C        5.42924196      -0.14036871       0.52732618
H        6.02780380      -0.86019855       1.04310996
C        5.14149243       1.16193827       1.15830474
O        4.25114036       1.89568017       0.76223658
C        6.00678868       1.55000484       2.31663587
H        2.52743309       0.59366432       0.23520858
H        2.96604933      -1.88467197       1.23588167
H        1.96974028      -2.38959180      -0.13323694
H        4.54188638      -2.59820174      -0.35825352
H        3.63028922      -2.00055065      -1.74914873
H        5.63840821      -0.64167428      -1.49681134
H        4.23643964       0.37412840      -1.18415967
H        5.89666346       0.87925432       3.17849461
H        7.06917096       1.55908418       2.04841869
H        5.75743471       2.56657732       2.66980128
20
Properties=species:S:1:pos:R:3 energy=-1588.9725115784236 pbc="F F F"
O        0.79991507      -0.29064694       0.33176293
C        1.99878622      -0.31835857       0.26268378
C        2.71340372      -1.65378534       0.17322414
C        3.94868927      -1.73645904      -0.71871958
C        4.81743242      -0.47603486      -0.76602817
C        5.42000918      -0.13881635       0.53087733
H        6.01108920      -0.86127163       1.05223383
C        5.14566246       1.17031600       1.15227824
O        4.26937315       1.91362962       0.74367550
C        6.00579307       1.55432987       2.31581823
H        2.54897565       0.58206705       0.25992590
H        2.94227123      -1.93039457       1.21544859
H        1.95352748      -2.37607063      -0.18389784
H        4.54433057      -2.59666766      -0.35401967
H        3.64481097      -2.00758396      -1.75611781
H        5.63903881      -0.63520374      -1.49233888
H        4.23206617       0.37385721      -1.18387822
H        5.88177200       0.89005902       3.18094116
H        7.07049744       1.55091283       2.05660801
H        5.76456192       2.57581569       2.66120556
20
Properties=species:S:1:pos:R:3 energy=-1588.963719381332 pbc="F F F"
O        0.81228643      -0.28225846       0.38396585
C        2.01178639      -0.31927568       0.28584603
C        2.70530255      -1.66180806       0.15593556
C        3.95058899      -1.73858706      -0.72311058
C        4.81441604      -0.47480401      -0.76483015
C        5.41005496      -0.13725278       0.53470962
H        5.99440316      -0.86208407       1.06118876
C        5.14983630       1.17860967       1.14629236
O        4.28801506       1.93125889       0.72499725
C        6.00481060       1.55872011       2.31499687
H        2.57158377       0.56953742       0.28471310
H        2.91811141      -1.97513133       1.19374791
H        1.93786714      -2.36130298      -0.23392807
H        4.54633946      -2.59503454      -0.34947550
H        3.65916217      -2.01459159      -1.76276197
H        5.63955123      -0.62879217      -1.48779229
H        4.22757268       0.37361076      -1.18353869
H        5.86682846       0.90110186       3.18324356
H        7.07166912       1.54277586       2.06491371
H        5.77182007       2.58500217       2.65256967
20
Properties=species:S:1:pos:R:3 energy=-1588.955075992776 pbc="F F F"
O        0.82528256      -0.27536795       0.43616783
C        2.02487288      -0.32084928       0.30877925
C        2.69686132      -1.66927389       0.13849474
C        3.95218763      -1.74066313      -0.72735520
C        4.81124822      -0.47359687      -0.76362138
C        5.39941728      -0.13567403       0.53881450
H        5.97776953      -0.86264166       1.06997220
C        5.15402232       1.18681193       1.14034537
O        4.30706084       1.94854706       0.70621694
C        6.00383934       1.56317403       2.31416948
H        2.59522367       0.55613590       0.30957325
H        2.89359275      -2.01885164       1.17078655
H        1.92276790      -2.34531697      -0.28327481
H        4.54791063      -2.59330609      -0.34462685
H        3.67333192      -2.02156815      -1.76907382
H        5.63993511      -0.62244535      -1.48317066
H        4.22295858       0.37338961      -1.18313900
H        5.85183887       0.91238324       3.18539395
H        7.07267662       1.53467641       2.07333356
H        5.77920803       2.59413083       2.64389709
20
Properties=species:S:1:pos:R:3 energy=-1588.9463954356133 pbc="F F F"
O        0.83890967      -0.26996201       0.48831092
C        2.03797117      -0.32310921       0.33144634
C        2.68810917      -1.67619865       0.12092106
C        3.95349264      -1.74268394      -0.73144558
C        4.80792871      -0.47240996      -0.76239464
C        5.38813411      -0.13407611       0.54318342
H        5.96121215      -0.86295016       1.07858161
C        5.15822894       1.19491549       1.13443556
O        4.32650520       1.96547317       0.68734965
C        6.00287736       1.56769011       2.31333374
H        2.61986155       0.54192293       0.33450938
H        2.86873814      -2.06152486       1.14657141
H        1.90823840      -2.32814073      -0.33188525
H        4.54904162      -2.59148602      -0.33947955
H        3.68730937      -2.02850821      -1.77504595
H        5.64018009      -0.61616906      -1.47847310
H        4.21822326       0.37319429      -1.18267709
H        5.83680924       0.92390356       3.18738446
H        7.07351055       1.52661763       2.08186529
H        5.78672466       2.60319576       2.63519132
20
Properties=species:S:1:pos:R:3 energy=-1588.9375616826414 pbc="F F F"
O        0.85317396      -0.26602723       0.54033717
C        2.05100674      -0.32608533       0.35381019
C        2.67907525      -1.68259819       0.10323387
C        3.95451146      -1.74464618      -0.73537389
C        4.80445722      -0.47123979      -0.76114271
C        5.37624345      -0.13245502       0.54780781
H        5.94475490      -0.86301535       1.08701446
C        5.16246452       1.20291300       1.12856118
O        4.34634287       1.98201630       0.66841049
C        6.00192273       1.57226680       2.31248730
H        2.64546362       0.52695896       0.35952456
H        2.84357047      -2.10312036       1.12110942
H        1.89428728      -2.30980239      -0.37970656
H        4.54973001      -2.58957802      -0.33403944
H        3.70108365      -2.03540637      -1.78067096
H        5.64027580      -0.60996908      -1.47369871
H        4.21336614       0.37302535      -1.18215090
H        5.82174559       0.93566321       3.18920723
H        7.07416150       1.51860267       2.09050665
H        5.79436884       2.61219103       2.62645584
20
Properties=species:S:1:pos:R:3 energy=-1588.9285236229628 pbc="F F F"
O        0.86808162      -0.26355020       0.59218862
C        2.06390507      -0.32980750       0.37583371
C        2.66978873      -1.68848834       0.08545252
C        3.95525153      -1.74654655      -0.73913226
C        4.80083352      -0.47008286      -0.75985838
C        5.36378327      -0.13080677       0.55267913
H        5.92842160      -0.86284300       1.09526820
C        5.16673746       1.21079715       1.12272050
O        4.36656859       1.99815552       0.64941453
C        6.00097351       1.57690260       2.31162786
H        2.67199609       0.51130446       0.38462182
H        2.81811262      -2.14360752       1.09440747
H        1.88092318      -2.29033009      -0.42668592
H        4.54997335      -2.58758580      -0.32831236
H        3.71464387      -2.04225720      -1.78594144
H        5.64021190      -0.60385119      -1.46884659
H        4.20838661       0.37288333      -1.18155838
H        5.80665395       0.94766259       3.19085440
H        7.07462009       1.51063466       2.09925539
H        5.80213943       2.62111072       2.61769416
20
Properties=species:S:1:pos:R:3 energy=-1588.9192755990368 pbc="F F F"
O        0.88363886      -0.26251752       0.64380732
C        2.07659164      -0.33430557       0.39747980
C        2.66027875      -1.69388492       0.06759639
C        3.95572030      -1.74838172      -0.74271284
C        4.79705733      -0.46893568      -0.75853442
C        5.35079156      -0.12912738       0.55778881
H        5.91223612      -0.86243890       1.10334030
C        5.17105614       1.21856061       1.11691180
O        4.38717708       2.01386988       0.63037688
C        6.00002777       1.58159597       2.31075308
H        2.69942516       0.49501987       0.40980423
H        2.79238748      -2.18295572       1.06647249
H        1.86815476      -2.26975195      -0.47277053
H        4.54976921      -2.58551305      -0.32230415
H        3.72797919      -2.04905530      -1.79084998
H        5.63997801      -0.59782116      -1.46391585
H        4.20328408       0.37276876      -1.18089744
H        5.79154032       0.95990209       3.19231810
H        7.07487693       1.50271676       2.10810926
H        5.81003531       2.62994892       2.60890975
20
Properties=species:S:1:pos:R:3 energy=-1588.9098246494184 pbc="F F F"
O        0.89985187      -0.26291579       0.69513532
C        2.08899194      -0.33960940       0.41871136
C        2.65057447      -1.69880376       0.04968481
C        3.95592520      -1.75014840      -0.74610779
C        4.79312840      -0.46779475      -0.75716362
C        5.33730630      -0.12741286       0.56312830
H        5.89622232      -0.86180880       1.11122822
C        5.17542897       1.22619607       1.11113334
O        4.40816308       2.02913844       0.61131262
C        5.99908357       1.58634538       2.30986064
H        2.72771705       0.47816565       0.43507483
H        2.76641794      -2.22113432       1.03731138
H        1.85599064      -2.24809610      -0.51790755
H        4.54911513      -2.58336347      -0.31602064
H        3.74107871      -2.05579524      -1.79538918
H        5.63956379      -0.59188478      -1.45890558
H        4.19805795       0.37268221      -1.18016604
H        5.77641072       0.97238211       3.19359047
H        7.07492262       1.49485212       2.11706599
H        5.81805533       2.63869971       2.60010610
20
Properties=species:S:1:pos:R:3 energy=-1588.9001461775517 pbc="F F F"
O        0.91672686      -0.26473161       0.74611467
C        2.10103143      -0.34574884       0.43949129
C        2.64070504      -1.70326071       0.03173717
C        3.95587367      -1.75184328      -0.74930925
C        4.78904646      -0.46665659      -0.75573875
C        5.32336547      -0.12565922       0.56868904
H        5.88040403      -0.86095848       1.11892941
C        5.17986431       1.23369619       1.10538340
O        4.42952131       2.04394028       0.59223686
C        5.99813899       1.59114930       2.30894821
H        2.75683795       0.46080225       0.46043667
H        2.74022687      -2.25811271       1.00693106
H        1.84443948      -2.22539067      -0.56204417
H        4.54800870      -2.58114077      -0.30946768
H        3.75393158      -2.06247162      -1.79955164
H        5.63895888      -0.58604782      -1.45381490
H        4.19270762       0.37262420      -1.17936210
H        5.76127119       0.98510306       3.19466364
H        7.07474778       1.48704388       2.12612334
H        5.82619838       2.64735715       2.59128672
20
Properties=species:S:1:pos:R:3 energy=-1588.8901304383717 pbc="F F F"
O        0.93427003      -0.26795155       0.79668741
C        2.11263562      -0.35275374       0.45978250
C        2.63069962      -1.70727158       0.01377281
C        3.95557317      -1.75346304      -0.75230937
C        4.78481125      -0.46551769      -0.75425261
C        5.30900705      -0.12386247       0.57446248
H        5.86480512      -0.85989372       1.12644134
C        5.18437057       1.24105367       1.09966024
O        4.45124650       2.05825446       0.57316469
C        5.99719209       1.59600621       2.30801347
H        2.78675409       0.44299012       0.48589281
H        2.71383716      -2.29386024       0.97533844
H        1.83350992      -2.20166380      -0.60512758
H        4.54644746      -2.57884864      -0.30265109
H        3.76652692      -2.06907903      -1.80332995
H        5.63815291      -0.58031607      -1.44864289
H        4.18723250       0.37259528      -1.17848357
H        5.74612772       0.99806531       3.19552976
H        7.07434300       1.47929518       2.13527906
H        5.83446332       2.65591534       2.58245508
20
Properties=species:S:1:pos:R:3 energy=-1588.8795229572904 pbc="F F F"
O        0.95248758      -0.27256223       0.84679560
C        2.12372996      -0.36065396       0.47954787
C        2.62058735      -1.71085221      -0.00418892
C        3.95503112      -1.75500439      -0.75510030
C        4.78042252      -0.46437457      -0.75269797
C        5.29426903      -0.12201863       0.58044006
H        5.84944943      -0.85862029       1.13376146
C        5.18895613       1.24826116       1.09396213
O        4.47333338       2.07206004       0.55411119
C        5.99624093       1.60091458       2.30705409
H        2.81743166       0.42478972       0.51144630
H        2.68727171      -2.32834630       0.94254043
H        1.82321059      -2.17694361      -0.64710495
H        4.54442898      -2.57649078      -0.29557673
H        3.77885386      -2.07561204      -1.80671671
H        5.63713553      -0.57469529      -1.44338868
H        4.18163198       0.37259600      -1.17752839
H        5.73098635       1.01126927       3.19618095
H        7.07369890       1.47160918       2.14453088
H        5.84284902       2.66436835       2.57361468
20
Properties=species:S:1:pos:R:3 energy=-1588.8678627271515 pbc="F F F"
O        0.97138570      -0.27855024       0.89638128
C        2.13423995      -0.36947936       0.49875032
C        2.61039740      -1.71401844      -0.02212864
C        3.95425498      -1.75646401      -0.75767418
C        4.77588000      -0.46322373      -0.75106762
C        5.27918939      -0.12012369       0.58661322
H        5.83436082      -0.85714396       1.14088724
C        5.19362937       1.25531136       1.08828735
O        4.49577668       2.08533609       0.53509146
C        5.99528359       1.60587288       2.30606775
H        2.84883688       0.40626150       0.53710018
H        2.66055338      -2.36154027       0.90854395
H        1.81355015      -2.15125823      -0.68792347
H        4.54195082      -2.57407091      -0.28825042
H        3.79090153      -2.08206525      -1.80970451
H        5.63589637      -0.56919127      -1.43805134
H        4.17590547       0.37262689      -1.17649448
H        5.71585308       1.02471534       3.19660935
H        7.07280608       1.46398902       2.15387656
H        5.85135435       2.67271026       2.56476901
20
Properties=species:S:1:pos:R:3 energy=-1588.8544227160767 pbc="F F F"
O        0.99097061      -0.28590217       0.94538650
C        2.14409107      -0.37925978       0.51735275
C        2.60015891      -1.71678608      -0.04002700
C        3.95325219      -1.75783859      -0.76002318
C        4.77118343      -0.46206168      -0.74935434
C        5.26380611      -0.11817368       0.59297341
H        5.81956313      -0.85547051       1.14781614
C        5.19839870       1.26219694       1.08263415
O        4.51857113       2.09806167       0.51612060
C        5.99431812       1.61087959       2.30505212
H        2.88093595       0.38746591       0.56285750
H        2.63370508      -2.39341150       0.87335590
H        1.80453722      -2.12463579      -0.72753031
H        4.53901054      -2.57159270      -0.28067801
H        3.80265907      -2.08843323      -1.81228595
H        5.63442509      -0.56380979      -1.43263000
H        4.17005237       0.37268850      -1.17537978
H        5.70073394       1.03840392       3.19680710
H        7.07165516       1.45643785       2.16331384
H        5.85997818       2.68093515       2.55592155
20
Properties=species:S:1:pos:R:3 energy=-1588.8381578449048 pbc="F F F"
O        1.01124849      -0.29460462       0.99375331
C        2.15320880      -0.39002509       0.53531805
C        2.58990104      -1.71917099      -0.05786464
C        3.95203018      -1.75912483      -0.76213942
C        4.76633255      -0.46088493      -0.74755090
C        5.24815718      -0.11616460       0.59951208
H        5.80508023      -0.85360571       1.15454561
C        5.20327248       1.26891057       1.07700082
O        4.54171147       2.11021583       0.49721369
C        5.99334261       1.61593317       2.30400487
H        2.91369507       0.36846341       0.58872133
H        2.60674969      -2.42392938       0.83698319
H        1.79618047      -2.09710443      -0.76587267
H        4.53560570      -2.56905988      -0.27286533
H        3.81411560      -2.09471059      -1.81445361
H        5.63271131      -0.55855662      -1.42712374
H        4.16407209       0.37278137      -1.17418224
H        5.68563495       1.05233539       3.19676634
H        7.07023673       1.44895881       2.17284047
H        5.86871937       2.68903710       2.54707581
20
Properties=species:S:1:pos:R:3 energy=-1588.817666125209 pbc="F F F"
O        1.03222554      -0.30464418       1.04142375
C        2.16151861      -0.40180512       0.55260912
C        2.57965294      -1.72118897      -0.07562220
C        3.95059640      -1.76031941      -0.76401508
C        4.76132710      -0.45968998      -0.74565010
C        5.23228057      -0.11409247       0.60622066
H        5.79093596      -0.85155534       1.16107312
C        5.20825913       1.27544493       1.07138562
O        4.56519241       2.12177766       0.47838584
C        5.99235511       1.62103211       2.30292369
H        2.94708047       0.34931445       0.61469470
H        2.57971008      -2.45306328       0.79943275
H        1.78848852      -2.06869227      -0.80289772
H        4.53173387      -2.56647613      -0.26481822
H        3.82526025      -2.10089189      -1.81620011
H        5.63074469      -0.55343755      -1.42153168
H        4.15796403       0.37290605      -1.17289979
H        5.67056213       1.06651015       3.19647920
H        7.06854141       1.44155505       2.18245419
H        5.87757680       2.69701019       2.53823527
20