20
Properties=species:S:1:pos:R:3:momenta:R:3:forces:R:3 pbc="F F F"
O        3.09467184      -1.74309919       3.02820570      -0.43213301       0.43417177      -2.03818206      -0.01315364       0.00814844      -0.00510174
C        3.89576546      -0.95858519       2.65815932       0.48285482      -0.33307220      -0.89578980      -0.18525118      -0.15977124       1.15376460
C        4.74787668       0.04507814       3.35167216      -0.45951413      -0.48444798      -3.18847999      -0.01189653       0.02226547      -0.01391061
C        4.91758268       1.30733649       2.49814328      -1.84184079       1.09216269      -0.20864122       0.01385259       0.01488442      -0.01055289
C        5.50729303       0.99941331       1.11260133       1.58514696       0.85289043       0.21762592      -0.00201202       0.00947135      -0.00097198
C        4.68202644      -0.01521399       0.36947196      -1.57642799      -0.57406096       1.44250651      -0.52236833      -1.05079207       0.48294446
H        3.75306600       0.37734575      -0.05924733      -0.03350231       0.17235613       0.10685048       0.01242577       0.00289132       0.03815847
C        5.39190276      -0.92257786      -0.57972230       0.49880807       0.20302573       1.44934035      -0.00093905      -0.01207158      -0.01689971
O        5.04968815      -2.08094768      -0.70533457      -3.02584361      -0.63453193       0.63635283      -0.00892259      -0.01316208      -0.01136576
C        6.53627507      -0.37335286      -1.38963956      -0.26543576       1.48937849      -0.75416494       0.00396711      -0.00249133      -0.01236487
H        4.14041065      -0.90991353       1.28098254      -0.32487793       0.01802215      -0.25378387       0.77509514       1.18186757      -1.74500279
H        4.31832412       0.30548781       4.34247559       0.18061569      -0.29936990       0.36269454       0.00616685      -0.03110318       0.00121567
H        5.74168271      -0.41612928       3.55432410      -0.04142489      -0.40115399       0.05248885      -0.02982239      -0.00408638       0.01910043
H        3.94030916       1.81868358       2.38474418       0.15407545       0.04128908      -0.27918482       0.00510006      -0.01318905       0.00990136
H        5.57778779       2.02361143       3.02540543      -0.44334880       0.42877133       0.09823330      -0.01768485       0.00515276       0.02651462
H        5.56115711       1.93943938       0.52377750      -0.37290680      -0.01063020      -0.30973847       0.03713406       0.00933890       0.01803879
H        6.55481887       0.65002285       1.21947702       0.26030269       0.35126870       0.27982552      -0.02646754       0.00456460       0.03560692
H        6.41459988       0.68015939      -1.65818862       0.00242945      -0.32588334       0.24619893      -0.02086370       0.00654603       0.02999412
H        7.48773877      -0.47793567      -0.85090520       0.05272260      -0.00532190      -0.36274399      -0.02747856       0.01671538       0.01786062
H        6.64925215      -0.94689281      -2.32265428       0.20579895       0.24995884       0.21335603       0.01311881       0.00482065      -0.01692971
