22
Properties=species:S:1:pos:R:3 energy=-2448.0839605061124 pbc="F F F"
O        0.46601500      -1.12428400       1.34785600
O        0.31659300       0.18933900       0.85372900
C       -1.02929100       0.59383100       0.91097500
O       -1.91126500      -0.19232800       1.12809200
C       -1.06940000       2.06466400       0.61386000
C       -0.77847100       2.89193100       1.87245700
C        0.69122000       2.84629600       2.28705600
C        1.63007200       3.76122700       1.55207100
O        2.80279000       3.85354000       1.82015600
C        1.05263500       4.63651900       0.40780300
O        0.71908200       4.14917600      -0.64369600
C        0.99090800       6.09005700       0.73479000
H        0.09145100      -1.68137400       0.59373200
H       -0.34468100       2.32575200      -0.19950000
H       -2.07214500       2.31940400       0.20453100
H       -1.10982400       3.93660900       1.70320100
H       -1.40613100       2.52298600       2.71326000
H        0.79033000       3.04518800       3.37831300
H        1.08625700       1.79879500       2.17924500
H        0.40935300       6.29757700       1.64264900
H        2.00382800       6.49581000       0.90625300
H        0.54720800       6.67354300      -0.08744100
22
Properties=species:S:1:pos:R:3 energy=-2447.9983784932033 pbc="F F F"
O        0.48867710      -1.10078157       1.32941962
O        0.27968843       0.16814417       0.91236493
C       -1.05570521       0.58513318       0.91197049
O       -1.96360937      -0.18119247       1.11704317
C       -1.05225564       2.04699501       0.61033272
C       -0.78145256       2.87332137       1.87195045
C        0.68802283       2.86621997       2.28852789
C        1.62712812       3.76177701       1.53378718
O        2.80400947       3.83729658       1.79375758
C        1.04834692       4.64440270       0.39651733
O        0.70302856       4.16394544      -0.65452394
C        1.00114375       6.09708625       0.73480060
H        0.11125661      -1.66361460       0.57973017
H       -0.32139185       2.25858415      -0.17332298
H       -2.04216041       2.32542250       0.17472935
H       -1.14726935       3.90496224       1.71040767
H       -1.39018819       2.48246339       2.72073875
H        0.77205609       3.11033049       3.36706196
H        1.10522713       1.82799631       2.22261279
H        0.42391681       6.30294255       1.64617675
H        2.01886812       6.49251863       0.90602710
H        0.55919663       6.69030471      -0.08071758
22
Properties=species:S:1:pos:R:3 energy=-2447.7550821842947 pbc="F F F"
O        0.51081151      -1.07602872       1.31140314
O        0.24128413       0.14567477       0.96962214
C       -1.08174494       0.57569306       0.91396460
O       -2.01456355      -0.16841604       1.10586801
C       -1.03653628       2.02914659       0.60737421
C       -0.78422595       2.85439905       1.87167962
C        0.68415316       2.88619742       2.28932597
C        1.62366536       3.76221171       1.51545042
O        2.80423224       3.82074285       1.76707759
C        1.04390138       4.65261879       0.38541683
O        0.68667505       4.17944551      -0.66503802
C        1.01175549       6.10400617       0.73496137
H        0.13226522      -1.64496375       0.56607463
H       -0.29671607       2.19227289      -0.14719364
H       -2.01161550       2.32995987       0.14563909
H       -1.18381839       3.87237745       1.71873024
H       -1.37293035       2.44210462       2.72799173
H        0.75221884       3.17432329       3.35400007
H        1.12256974       1.85866738       2.26521734
H        0.43909803       6.30810451       1.64994061
H        2.03423830       6.48869510       0.90561347
H        0.57181657       6.70702546      -0.07372744
22
Properties=species:S:1:pos:R:3 energy=-2447.3802600474046 pbc="F F F"
O        0.53244516      -1.05010469       1.29380103
O        0.20141588       0.12202727       1.02550318
C       -1.10742631       0.56556225       0.91692056
O       -2.06411373      -0.15405728       1.09458290
C       -1.02219950       2.01112642       0.60498235
C       -0.78678568       2.83518766       1.87164476
C        0.67961179       2.90620427       2.28946149
C        1.61968554       3.76253675       1.49707541
O        2.80346903       3.80390153       1.74013984
C        1.03930363       4.66115427       0.37451073
O        0.67004076       4.19565810      -0.67522734
C        1.02272875       6.11080861       0.73526890
H        0.15444762      -1.62546046       0.55276751
H       -0.27069749       2.12687466      -0.12113635
H       -1.98054390       2.33302271       0.11729322
H       -1.21943867       3.83890282       1.72814538
H       -1.35439189       2.40195456       2.73500491
H        0.73086353       3.23711336       3.33916566
H        1.13827453       1.89075031       2.30702080
H        0.45487841       6.31305937       1.65393163
H        2.04991551       6.48434679       0.90501439
H        0.58505103       6.72368873      -0.06647895
22
Properties=species:S:1:pos:R:3 energy=-2446.9084369859474 pbc="F F F"
O        0.55360500      -1.02308872       1.27660776
O        0.16011949       0.09729811       1.08001062
C       -1.13276546       0.55479233       0.92080158
O       -2.11224613      -0.13817479       1.08320420
C       -1.00920288       1.99294218       0.60315504
C       -0.78912629       2.81571082       1.87184611
C        0.67439954       2.92621645       2.28894566
C        1.61519050       3.76275782       1.47867686
O        2.80173052       3.78679535       1.71296813
C        1.03455892       4.66999612       0.36380826
O        0.65314501       4.21256510      -0.68508100
C        1.03404905       6.11748541       0.73571974
H        0.17777461      -1.60514378       0.53981093
H       -0.24337994       2.06244587      -0.09517551
H       -1.94897927       2.33461763       0.08972475
H       -1.25409776       3.80458653       1.73862974
H       -1.33460721       2.36205806       2.74176427
H        0.70803545       3.29864764       3.32259704
H        1.15233120       1.92418720       2.34798531
H        0.47123969       6.31780359       1.65814087
H        2.06587675       6.47948110       0.90423211
H        0.59888321       6.74027800      -0.05898047
22
Properties=species:S:1:pos:R:3 energy=-2446.3825166895067 pbc="F F F"
O        0.57431799      -0.99506005       1.25981778
O        0.11743077       0.07158373       1.13314702
C       -1.15777850       0.54343489       0.92557088
O       -2.15894693      -0.12082713       1.07174830
C       -0.99750401       1.97460153       0.60189017
C       -0.79124232       2.79599216       1.87228391
C        0.66851724       2.94620987       2.28778969
C        1.61018209       3.76288059       1.46026946
O        2.79902742       3.76944704       1.68558626
C        1.02967251       4.67913132       0.35331864
O        0.63600708       4.23014840      -0.69458808
C        1.04570191       6.12402842       0.73631046
H        0.20221697      -1.58405273       0.52720702
H       -0.21480723       1.99904296      -0.06933548
H       -1.91695525       2.33475122       0.06296670
H       -1.28776324       3.76947678       1.75015998
H       -1.31361075       2.32245995       2.74825577
H        0.68377988       3.35887308       3.30433256
H        1.16472945       1.95892014       2.38807304
H        0.48816362       6.32233364       1.66255938
H        2.08209899       6.47410541       0.90326889
H        0.61329632       6.75677677      -0.05124036
22
Properties=species:S:1:pos:R:3 energy=-2445.853189656172 pbc="F F F"
O        0.59461106      -0.96609791       1.24342558
O        0.07338552       0.04498058       1.18491493
C       -1.18248156       0.53154153       0.93119170
O       -2.20420235      -0.10207288       1.06023157
C       -0.98706046       1.95611217       0.60118563
C       -0.79312829       2.77605531       1.87295841
C        0.66196569       2.96616046       2.28600483
C        1.60466215       3.76291073       1.44186792
O        2.79537045       3.75187932       1.65801801
C        1.02464965       4.68854685       0.34305110
O        0.61864628       4.24838988      -0.70373770
C        1.05767286       6.13042948       0.73703764
H        0.22774550      -1.56222634       0.51495791
H       -0.18502319       1.93672234      -0.04364064
H       -1.88450549       2.33343010       0.03705206
H       -1.32040267       3.73362176       1.76271277
H       -1.29143691       2.28320511       2.75446539
H        0.65814210       3.41773663       3.28441055
H        1.17545899       1.99489124       2.42724613
H        0.50563192       6.32664601       1.66717821
H        2.09855921       6.46822711       0.90212700
H        0.62827356       6.77316850      -0.04326699
22
Properties=species:S:1:pos:R:3 energy=-2445.376576039787 pbc="F F F"
O        0.61451117      -0.93628154       1.22742560
O        0.02801953       0.01758513       1.23531692
C       -1.20689076       0.51916384       0.93762725
O       -2.24799859      -0.08197062       1.04867038
C       -0.97782983       1.93748176       0.60103931
C       -0.79477874       2.75592390       1.87386986
C        0.65474571       2.98604414       2.28360228
C        1.59863250       3.76285392       1.42348692
O        2.79077029       3.73411493       1.63028720
C        1.01949560       4.69822971       0.33301486
O        0.60108189       4.26727143      -0.71251893
C        1.06994742       6.13668044       0.73789783
H        0.25433099      -1.53970363       0.50306572
H       -0.15407163       1.87554046      -0.01811537
H       -1.85166362       2.33066085       0.01201385
H       -1.35198362       3.69706966       1.77626475
H       -1.26812011       2.24433837       2.76037911
H        0.63116738       3.47518524       3.26286932
H        1.18450951       2.03204259       2.46546673
H        0.52362635       6.33073715       1.67198841
H        2.11523439       6.46185359       0.90080870
H        0.64379815       6.78943669      -0.03506872
22
Properties=species:S:1:pos:R:3 energy=-2445.0084088701333 pbc="F F F"
O        0.63404526      -0.90569018       1.21181233
O       -0.01863138      -0.01050620       1.28435556
C       -1.23102222       0.50635341       0.94484075
O       -2.29032186      -0.06057893       1.03708111
C       -0.96976968       1.91871798       0.60144911
C       -0.79618819       2.73562154       1.87501850
C        0.64685812       3.00583682       2.28059327
C        1.59209500       3.76271583       1.40514117
O        2.78523766       3.71617658       1.60241761
C        1.01421562       4.70816687       0.32321916
O        0.58333323       4.28677493      -0.72092089
C        1.08251111       6.14277314       0.73888762
H        0.28194423      -1.51652364       0.49153259
H       -0.12199639       1.81555374       0.00721596
H       -1.81846330       2.32645009      -0.01211492
H       -1.38247366       3.65986868       1.79079260
H       -1.24369476       2.20590458       2.76598289
H        0.60290102       3.53116585       3.23974722
H        1.19187073       2.07031630       2.50269700
H        0.54212866       6.33460354       1.67698104
H        2.13210152       6.45499224       0.89931624
H        0.65985328       6.80556482      -0.02665392
22
Properties=species:S:1:pos:R:3 energy=-2444.793701064697 pbc="F F F"
O        0.65324027      -0.87440307       1.19658023
O       -0.06653141      -0.03919694       1.33203339
C       -1.25489208       0.49316183       0.95279543
O       -2.33115834      -0.03795639       1.02548014
C       -0.96283761       1.89982851       0.60241291
C       -0.79735119       2.71517188       1.87640456
C        0.63830373       3.02551442       2.27698902
C        1.58505148       3.76250213       1.38684537
O        2.77878327       3.69808701       1.57443306
C        1.00881496       4.71834533       0.31367321
O        0.56541959       4.30688228      -0.72893266
C        1.09534946       6.14869944       0.74000356
H        0.31055603      -1.49272539       0.48036064
H       -0.08884128       1.75681859       0.03232895
H       -1.78493816       2.32080442      -0.03530124
H       -1.41184035       3.62206700       1.80627297
H       -1.21819528       2.16794861       2.77126271
H        0.57338829       3.58562540       3.21508258
H        1.19753233       2.10965446       2.53889907
H        0.56112057       6.33824166       1.68214716
H        2.14913757       6.44765044       0.89765190
H        0.67642216       6.82153636      -0.01803095
22
Properties=species:S:1:pos:R:3 energy=-2444.7536815715434 pbc="F F F"
O        0.67212316      -0.84249944       1.18172376
O       -0.11564477      -0.06839065       1.37835298
C       -1.27851645       0.47964069       0.96145451
O       -2.37049426      -0.01416157       1.01388384
C       -0.95699120       1.88082103       0.60392861
C       -0.79826225       2.69459854       1.87802831
C        0.62908336       3.04505288       2.27280076
C        1.57750378       3.76221851       1.36861421
O        2.77141781       3.67986895       1.54635732
C        1.00329887       4.72875206       0.30438625
O        0.54736026       4.32757535      -0.73654335
C        1.10844800       6.15445117       0.74124222
H        0.34013716      -1.46834790       0.46955201
H       -0.05465013       1.69939146       0.05719925
H       -1.75112186       2.31373043      -0.05751212
H       -1.44005128       3.58371281       1.82268252
H       -1.19165607       2.13051529       2.77620455
H        0.54267448       3.63851086       3.18891371
H        1.20148403       2.14999916       2.57403510
H        0.58058384       6.34164798       1.68747780
H        2.16631952       6.43983560       0.89581792
H        0.69348800       6.83733481      -0.00920817
22
Properties=species:S:1:pos:R:3 energy=-2444.8768813034744 pbc="F F F"
O        0.69072086      -0.81005853       1.16723739
O       -0.16593564      -0.09799088       1.42331689
C       -1.30191145       0.46584159       0.97078122
O       -2.40831581       0.01074695       1.00230859
C       -0.95218802       1.86170321       0.60599410
C       -0.79891592       2.67392513       1.87988997
C        0.61919783       3.06442809       2.26803970
C        1.56945374       3.76187062       1.35046240
O        2.76315198       3.66154511       1.51821422
C        0.99767261       4.73937404       0.29536749
O        0.52917455       4.34883604      -0.74374204
C        1.12179225       6.16002018       0.74260017
H        0.37065842      -1.44343022       0.45910880
H       -0.01946675       1.64332876       0.08180247
H       -1.71704803       2.30523475      -0.07871453
H       -1.46707399       3.54485431       1.83999791
H       -1.16411157       2.09364949       2.78079436
H        0.51080486       3.68976916       3.16127897
H        1.20371553       2.19129251       2.60806724
H        0.60050021       6.34481896       1.69296403
H        2.18362436       6.43155508       0.89381658
H        0.71103400       6.85294364      -0.00019394
22
Properties=species:S:1:pos:R:3 energy=-2445.1208127613404 pbc="F F F"
O        0.70906033      -0.77715957       1.15311559
O       -0.21736824      -0.12790119       1.46692769
C       -1.32509321       0.45181612       0.98073876
O       -2.44460919       0.03671059       0.99077076
C       -0.94838567       1.84248272       0.60860727
C       -0.79930672       2.65317530       1.88198981
C        0.60864795       3.08361600       2.26271708
C        1.56090319       3.76146415       1.33240463
O        2.75399650       3.64313824       1.49002753
C        0.99194143       4.75019828       0.28662617
O        0.51088175       4.37064623      -0.75051784
C        1.13536772       6.16539832       0.74407399
H        0.40209061      -1.41801136       0.44903316
H        0.01666502       1.58868692       0.10611423
H       -1.68275032       2.29532395      -0.09887547
H       -1.49287607       3.50553969       1.85819581
H       -1.13559617       2.05739604       2.78501814
H        0.47782473       3.73934726       3.13221666
H        1.20421651       2.23347661       2.64095765
H        0.62085141       6.34775108       1.69859690
H        2.20102907       6.42281629       0.89165013
H        0.72904338       6.86834634       0.00900337
22
Properties=species:S:1:pos:R:3 energy=-2445.422244656416 pbc="F F F"
O        0.72716850      -0.74388181       1.13935282
O       -0.26990674      -0.15802511       1.50918792
C       -1.34807786       0.43761587       0.99129038
O       -2.47936062       0.06367077       0.97928672
C       -0.94554172       1.82316725       0.61176601
C       -0.79942919       2.63237266       1.88432805
C        0.59743453       3.10259251       2.25684411
C        1.55185398       3.76100476       1.31445561
O        2.74396207       3.62467105       1.46182106
C        0.98611060       4.76121174       0.27817151
O        0.49250116       4.39298780      -0.75685985
C        1.14915996       6.17057743       0.74566023
H        0.43440451      -1.39213036       0.43932722
H        0.05370137       1.53552238       0.13011015
H       -1.64826238       2.28400466      -0.11796194
H       -1.51742507       3.46581713       1.87725287
H       -1.10614430       2.02179981       2.78886185
H        0.44377935       3.78719210       3.10176513
H        1.20297670       2.27649355       2.67266846
H        0.64161920       6.35044082       1.70436746
H        2.21851062       6.41362661       0.88932084
H        0.74749933       6.88352639       0.01837539
22
Properties=species:S:1:pos:R:3 energy=-2445.7109545378908 pbc="F F F"
O        0.74507234      -0.71030449       1.12594355
O       -0.32351536      -0.18826621       1.55010016
C       -1.37088151       0.42329242       1.00239928
O       -2.51255628       0.09156891       0.96787285
C       -0.94361375       1.80376448       0.61546821
C       -0.79927786       2.61154085       1.88690495
C        0.58555840       3.12133355       2.25043202
C        1.54230794       3.76049814       1.29663002
O        2.73305938       3.60616628       1.43361861
C        0.98018536       4.77240141       0.27001274
O        0.47405208       4.41584266      -0.76275715
C        1.16315447       6.17554937       0.74735546
H        0.46757092      -1.36582624       0.42999309
H        0.09159848       1.48389155       0.15376586
H       -1.61361786       2.27128346      -0.13594092
H       -1.54068858       3.42573484       1.89714574
H       -1.07579036       1.98690564       2.79231146
H        0.40871402       3.83325062       3.06996270
H        1.19998579       2.32028544       2.70316184
H        0.66278531       6.35288464       1.71026676
H        2.23604601       6.40399343       0.88683097
H        0.76638506       6.89846726       0.02791377
22
Properties=species:S:1:pos:R:3 energy=-2445.923114365276 pbc="F F F"
O        0.76279878      -0.67650683       1.11288225
O       -0.37815828      -0.21852804       1.58966695
C       -1.39352030       0.40889739       1.01402870
O       -2.54418239       0.12034643       0.95654554
C       -0.94255935       1.78428207       0.61971177
C       -0.79884725       2.59070348       1.88972074
C        0.57302037       3.13981503       2.24349203
C        1.53226692       3.75994995       1.27894257
O        2.72129915       3.58764664       1.40544398
C        0.97417096       4.78375428       0.26215909
O        0.45555381       4.43919267      -0.76819884
C        1.17733678       6.18030596       0.74915626
H        0.50156064      -1.33913802       0.42103291
H        0.13031252       1.43385087       0.17705699
H       -1.57885038       2.25716697      -0.15277940
H       -1.56263415       3.38534099       1.91785110
H       -1.04456879       1.95275839       2.79535296
H        0.37267401       3.87746978       3.03684770
H        1.19523348       2.36479436       2.73239992
H        0.68433149       6.35507901       1.71628587
H        2.25361220       6.39392414       0.88418278
H        0.78568377       6.91315246       0.03761014
22
Properties=species:S:1:pos:R:3 energy=-2446.0102984651708 pbc="F F F"
O        0.78037477      -0.64256808       1.10016339
O       -0.43379971      -0.24871414       1.62789087
C       -1.41601034       0.39448234       1.02614185
O       -2.57422515       0.14994477       0.94532114
C       -0.94233610       1.76472770       0.62449457
C       -0.79813190       2.56988420       1.89277568
C        0.55982126       3.15801288       2.23603536
C        1.52173275       3.75936587       1.26140796
O        2.70869208       3.56913488       1.37732096
C        0.96807268       4.79525734       0.25461977
O        0.43702564       4.46301974      -0.77317403
C        1.19169243       6.18483907       0.75105919
H        0.53634445      -1.31210475       0.41244880
H        0.16979967       1.38545675       0.19995914
H       -1.54399361       2.24166178      -0.16844438
H       -1.58322936       3.34468379       1.93934560
H       -1.01251398       1.91940290       2.79797230
H        0.33570461       3.91979653       3.00245847
H        1.18870948       2.40996243       2.76034487
H        0.70623948       6.35702042       1.72241582
H        2.27118618       6.38342613       0.88137853
H        0.80537868       6.92756545       0.04745614
22
Properties=species:S:1:pos:R:3 energy=-2445.94311412715 pbc="F F F"
O        0.79782725      -0.60856747       1.08778142
O       -0.49040385      -0.27872807       1.66477448
C       -1.43836776       0.38009889       1.03870195
O       -2.60267075       0.18030533       0.93421604
C       -0.94290159       1.74510906       0.62981451
C       -0.79712635       2.54910661       1.89607001
C        0.54596187       3.17590302       2.22807323
C        1.51070727       3.75875158       1.24404088
O        2.69524887       3.55065371       1.34927336
C        0.96189575       4.80689756       0.24740402
O        0.41848688       4.48730574      -0.77767180
C        1.20620692       6.18914053       0.75306082
H        0.57189315      -1.28476545       0.40424289
H        0.21001611       1.33876564       0.22244795
H       -1.50908118       2.22477451      -0.18290284
H       -1.60244177       3.30381143       1.96160590
H       -0.97966035       1.88688402       2.80015546
H        0.29785109       3.96017781       2.96683333
H        1.18040348       2.45573173       2.78695883
H        0.72849102       6.35870533       1.72864767
H        2.28874493       6.37250678       0.87842048
H        0.82545299       6.94168972       0.05744340
22
Properties=species:S:1:pos:R:3 energy=-2445.7112785312256 pbc="F F F"
O        0.81518318      -0.57458424       1.07573082
O       -0.54793488      -0.30847338       1.70032032
C       -1.46060868       0.36579861       1.05167224
O       -2.62950542       0.21136955       0.92324661
C       -0.94421339       1.72543382       0.63566949
C       -0.79582512       2.52839436       1.89960397
C        0.53144304       3.19346137       2.21961688
C        1.49919233       3.75811274       1.22685604
O        2.68098023       3.53222586       1.32132497
C        0.95564544       4.81866193       0.24052106
O        0.39995682       4.51203256      -0.78168126
C        1.22086579       6.19320219       0.75515772
H        0.60817753      -1.25715913       0.39641732
H        0.25091801       1.29383395       0.24449904
H       -1.47414674       2.20651174      -0.19612179
H       -1.62023895       3.26277208       1.98460866
H       -0.94604232       1.85524661       2.80188842
H        0.25915875       3.99856057       2.93001061
H        1.17030519       2.50204437       2.81220395
H        0.75106786       6.36013021       1.73497248
H        2.30626543       6.36117348       0.87531090
H        0.84588991       6.95550875       0.06756356
22
Properties=species:S:1:pos:R:3 energy=-2445.3214752399726 pbc="F F F"
O        0.83246949      -0.54069764       1.06400605
O       -0.60635702      -0.33785361       1.73453097
C       -1.48274923       0.35163311       1.06501593
O       -2.65471534       0.24307884       0.91242923
C       -0.94622908       1.70570965       0.64205738
C       -0.79422274       2.50777106       1.90337781
C        0.51626557       3.21066384       2.21067751
C        1.48718975       3.75745504       1.20986813
O        2.66589686       3.51387407       1.29349958
C        0.94932699       4.83053744       0.23398012
O        0.38145476       4.53718209      -0.78519149
C        1.23565456       6.19701591       0.75734645
H        0.64516838      -1.22932485       0.38897420
H        0.29246156       1.25071811       0.26608802
H       -1.43922394       2.18688009      -0.20806821
H       -1.63658848       3.22161396       2.00833054
H       -0.91169430       1.82453552       2.80315715
H        0.21967285       4.03489175       2.89202864
H        1.15840432       2.54884245       2.83604238
H        0.77395173       6.36129153       1.74138130
H        2.32372466       6.34943363       0.87205204
H        0.86667263       6.96900603       0.07780825
22
Properties=species:S:1:pos:R:3 energy=-2444.793911787799 pbc="F F F"
O        0.84971314      -0.50698688       1.05260159
O       -0.66563444      -0.36677233       1.76740898
C       -1.50480553       0.33765397       1.07869624
O       -2.67828672       0.27537462       0.90178028
C       -0.94890626       1.68594423       0.64897608
C       -0.79231375       2.48726035       1.90739176
C        0.50043028       3.22748636       2.20126635
C        1.47470138       3.75678413       1.19309185
O        2.65000946       3.49562105       1.26582100
C        0.94294567       4.84251107       0.22779042
O        0.36300000       4.56273621      -0.78819161
C        1.25055876       6.20057351       0.75962359
H        0.68283649      -1.20130161       0.38191566
H        0.33460293       1.20947456       0.28719053
H       -1.40434641       2.16588616      -0.21870909
H       -1.65145791       3.18038524       2.03274821
H       -0.87665071       1.79479560       2.80394763
H        0.17943869       4.06911831       2.85292576
H        1.14469055       2.59606806       2.85843627
H        0.79712439       6.36218578       1.74786518
H        2.34109961       6.33729460       0.86864617
H        0.88778437       6.98216503       0.08816912
22
Properties=species:S:1:pos:R:3 energy=-2444.1593850586705 pbc="F F F"
O        0.86694108      -0.47353122       1.04151189
O       -0.72573136      -0.39513309       1.79895692
C       -1.52679370       0.32391278       1.09267640
O       -2.70020576       0.30819833       0.89131612
C       -0.95220249       1.66614524       0.65642349
C       -0.79009268       2.46688585       1.91164609
C        0.48393799       3.24390485       2.19139463
C        1.46172906       3.75610571       1.17654190
O        2.63332874       3.47748954       1.23831303
C        0.93650673       4.85456980       0.22196120
O        0.34461184       4.58867682      -0.79067069
C        1.26556390       6.20386685       0.76198569
H        0.72115266      -1.17312845       0.37524384
H        0.37729830       1.17015970       0.30778219
H       -1.36954780       2.14353654      -0.22801143
H       -1.66481482       3.13913411       2.05783831
H       -0.84094596       1.76607170       2.80424582
H        0.13850155       4.10118719       2.81274029
H        1.12915360       2.64366329       2.87934778
H        0.82056756       6.36280941       1.75441518
H        2.35836724       6.32476380       0.86509555
H        0.90920834       6.99496925       0.09863780
22
Properties=species:S:1:pos:R:3 energy=-2441.5549653829457 pbc="F F F"
O        0.88418024      -0.44040989       1.03073143
O       -0.78661197      -0.42283942       1.82917735
C       -1.54872987       0.31046115       1.10691962
O       -2.72045867       0.34149137       0.88105314
C       -0.95607537       1.64632036       0.66439750
C       -0.78755406       2.44667118       1.91614102
C        0.46678950       3.25989523       2.18107357
C        1.44827462       3.75542543       1.16023298
O        2.61586540       3.45950226       1.21099946
C        0.93001543       4.86670063       0.21650167
O        0.32630957       4.61498579      -0.79261784
C        1.28065551       6.20688778       0.76442933
H        0.76008769      -1.14484440       0.36896085
H        0.42050385       1.13282998       0.32783861
H       -1.33486177       2.11983785      -0.23594221
H       -1.67662678       3.09790878       2.08357751
H       -0.80461447       1.73840866       2.80403769
H        0.09690670       4.13104534       2.77151056
H        1.11178316       2.69157026       2.89873904
H        0.84426300       6.36315891       1.76102234
H        2.37550456       6.31184860       0.86140244
H        0.93092773       7.00740216       0.10920593
22
Properties=species:S:1:pos:R:3 energy=-2442.136040958989 pbc="F F F"
O        0.90145757      -0.40770213       1.02025466
O       -0.84824047      -0.44979489       1.85807282
C       -1.57063016       0.29735065       1.12138914
O       -2.73903165       0.37519517       0.87100770
C       -0.96048247       1.62647725       0.67289599
C       -0.78469242       2.42663999       1.92087681
C        0.44898565       3.27543341       2.17031439
C        1.43433991       3.75474898       1.14417978
O        2.59763015       3.44168193       1.18390410
C        0.92347702       4.87889053       0.21142106
O        0.30811249       4.64164502      -0.79402216
C        1.29581912       6.20962813       0.76695109
H        0.79961236      -1.11648848       0.36306884
H        0.46417575       1.09754182       0.34733542
H       -1.30032194       2.09479669      -0.24246842
H       -1.68686135       3.05675743       2.10994247
H       -0.76769065       1.71185135       2.80330923