22
Properties=species:S:1:pos:R:3:momenta:R:3:forces:R:3 pbc="F F F"
O       -0.54326569      -1.33588004      -0.80834856      -0.42974493      -1.10730809       0.66230992       2.50695632       4.32080414      -2.26146390
O        0.46556221       0.29838917      -1.62857485      -1.57588432       1.06236060       1.07820781      -2.70693518      -4.22550819       2.56295554
C        0.64447461       0.95120246      -0.42945405       0.91144151       0.16566276      -0.92348219      -0.00782283      -0.05019953       0.07320850
O        1.76239518       1.24606291      -0.11121663       2.15257739       0.57854947       0.15022045       1.60698450       0.45894335      -0.11630339
C       -0.53125398       1.27975333       0.44377523      -1.16843870       0.43542109      -0.68456987      -1.26084978      -1.25372690      -1.18033958
C       -0.96331124       2.73080770       0.25278995       0.07893620      -1.02000118       0.49065825      -0.02337367       0.00426737      -0.02189722
C       -2.08429369       3.17164421       1.19951282      -0.95810530      -0.72858625      -0.34494595      -0.02535751      -0.02140818       0.02353082
C       -3.45889820       2.75253782       0.74201582      -0.72389978       0.89435242       0.45609875      -0.02586102      -0.00551833       0.01185166
O       -3.69832224       1.92442303      -0.09744819      -0.60330404       0.31167837      -1.72005150       0.00837915       0.02262895      -0.02405098
C       -4.62564882       3.50234855       1.45027081      -0.74902772       0.19357254      -1.42798960      -0.01856419      -0.04377023      -0.01001756
O       -5.10497586       3.07904467       2.47029099      -0.34069423       1.18403252       0.53537230       0.09375846       0.01600774      -0.01857740
C       -5.07028098       4.74639896       0.75167832       0.74158775       0.53592009       0.64281972       0.02084123      -0.01173992      -0.00134397
H       -0.21514963      -1.87997974      -1.56316833      -0.11288112       0.48634301      -0.48615975      -0.01409610       0.01635278       0.00761920
H       -1.29034914       0.51082828       0.01386281       0.20618375      -0.00091560      -0.67899791      -0.21345573       0.88428617       0.90711777
H       -0.33415442       1.03209709       1.49780786       0.13103386       0.16945339      -0.20419619       0.02066831      -0.01346762       0.04437844
H       -0.08510110       3.39640152       0.40395089      -0.39302917       0.42063055       0.48997277       0.01264927      -0.01117045       0.02166455
H       -1.29131739       2.88743091      -0.79611384       0.24543174       0.07413331      -0.36843582      -0.00238980      -0.00996872      -0.05674445
H       -1.91051369       2.77028052       2.22286494      -0.22778286       0.11520183      -0.56088918      -0.01228570      -0.02652213       0.02872607
H       -2.04698200       4.27581492       1.31699740      -0.48962125      -0.15087253       0.05242440       0.00444598      -0.00190016       0.01878845
H       -4.38854493       5.58562060       0.94899304       0.23751683       0.07356096       0.17177787       0.00711117       0.00372310      -0.00782272
H       -5.13302720       4.62112241      -0.33911568       0.42716426       0.27369396      -0.18327312      -0.00692367      -0.01476374       0.00342123
H       -6.06826852       5.06737920       1.09955732       0.34974599      -0.42781748       0.28768756       0.03612079      -0.03734949      -0.00470108
