4
Properties=species:S:1:pos:R:3 energy=-1084.2678967089453 pbc="F F F"
C        1.15257300       0.30921100      -0.03529800
H        0.65370800       0.74158500       0.79204800
H        0.65371400       0.21530900      -0.96407300
H        2.15057500      -0.02850500       0.06590700
