22
Properties=species:S:1:pos:R:3 energy=-1890.6128682834028 pbc="F F F"
C        3.44792000      -1.18009700       2.01201600
C        2.32170900      -0.68359800       1.09284800
C        2.47145800      -1.17375600      -0.35883700
C        2.36297800      -2.63466400      -0.48226500
C        4.22139900      -3.02838000       3.55668400
C        3.07666500      -2.47131400       2.74389600
H        4.37108900      -1.34193200       1.41230600
H        3.69549400      -0.39284500       2.75050900
H        1.33363800      -0.98323800       1.49144000
H        2.31674900       0.42499100       1.08799900
H        1.71386400      -0.67540800      -0.99989900
H        3.46768700      -0.85480000      -0.75549100
C        1.14445400      -3.44628700      -0.57293300
H        5.23631800      -2.75790500       3.22425700
H        2.19207800      -2.31815600       3.39559900
H        2.76032200      -3.24971400       2.01401300
H        0.57873200      -3.21777500      -1.49163800
H        0.47195000      -3.25343400       0.27931300
H        1.35680900      -4.52770500      -0.58543900
O        4.03476400      -3.74642900       4.51413600
O        4.59583300      -2.91369400      -0.46034500
O        3.50737700      -3.45596300      -0.53210800
22
Properties=species:S:1:pos:R:3 energy=-1890.6145771697395 pbc="F F F"
C        3.44901639      -1.18614437       2.01075667
C        2.31836198      -0.68865974       1.09798099
C        2.46344259      -1.17761139      -0.35167202
C        2.35586781      -2.63144205      -0.48552647
C        4.22018651      -3.02387584       3.56851591
C        3.07344393      -2.46807245       2.75840560
H        4.36535709      -1.36126376       1.40258673
H        3.71128653      -0.39292518       2.73776588
H        1.33169289      -0.99110225       1.50144765
H        2.31206602       0.42019053       1.09747696
H        1.74128610      -0.65928199      -1.00529184
H        3.49457868      -0.88861898      -0.78285545
C        1.14233722      -3.44823887      -0.57387397
H        5.23366987      -2.72625773       3.25843805
H        2.19482399      -2.30075447       3.41644276
H        2.74544843      -3.25198349       2.03957697
H        0.60741927      -3.27271876      -1.51034309
H        0.43897271      -3.22917279       0.23738038
H        1.35036510      -4.52212595      -0.53072008
O        4.03610276      -3.77207249       4.50226493
O        4.59127708      -2.87243846      -0.48791812
O        3.50228405      -3.43753252      -0.56477747
22
Properties=species:S:1:pos:R:3 energy=-1890.5616003546436 pbc="F F F"
C        3.45008813      -1.19254878       2.00954957
C        2.31482371      -0.69398304       1.10334571
C        2.45515651      -1.18129700      -0.34442523
C        2.34865475      -2.62804359      -0.48902937
C        4.21898061      -3.01934183       3.58070159
C        3.07026247      -2.46454397       2.77328957
H        4.35927247      -1.38140050       1.39333354
H        3.72717158      -0.39366085       2.72472214
H        1.32969201      -0.99955679       1.51127767
H        2.30728304       0.41506557       1.10731437
H        1.76909816      -0.64377725      -1.00969040
H        3.52167514      -0.92134434      -0.81294794
C        1.14031400      -3.45053479      -0.57495168
H        5.23030753      -2.69513346       3.29368876
H        2.19796403      -2.28263306       3.43733029
H        2.73039026      -3.25375475       2.06583911
H        0.63662823      -3.32689161      -1.52728620
H        0.40757623      -3.20638894       0.19464800
H        1.34322301      -4.51513709      -0.47724484
O        4.03815357      -3.79686267       4.49002199
O        4.58596434      -2.83152183      -0.51527603
O        3.49660721      -3.41881243      -0.59814962
22
Properties=species:S:1:pos:R:3 energy=-1890.456209759804 pbc="F F F"
C        3.45113084      -1.19930637       2.00839943
C        2.31110911      -0.69956797       1.10892706
C        2.44663895      -1.18481911      -0.33710798
C        2.34135320      -2.62447222      -0.49277210
C        4.21778003      -3.01477609       3.59322831
C        3.06712638      -2.46073256       2.78852914
H        4.35283674      -1.40231658       1.38455590
H        3.74313196      -0.39505320       2.71139112
H        1.32764075      -1.00858623       1.52092058
H        2.30240333       0.40961607       1.11749287
H        1.79726977      -0.62888432      -1.01311940
H        3.54893156      -0.95299237      -0.84562904
C        1.13839381      -3.45314845      -0.57616526
H        5.22623487      -2.66456303       3.32996097
H        2.20150137      -2.26381799       3.45823636
H        2.71516609      -3.25501906       2.09277372
H        0.66631547      -3.38025947      -1.54247401
H        0.37776822      -3.18508182       0.15117476
H        1.33539784      -4.50678680      -0.42505312
O        4.04090896      -3.82078106       4.47743189
O        4.57989597      -2.79094164      -0.54245956
O        3.49035177      -3.39981275      -0.63218066
22
Properties=species:S:1:pos:R:3 energy=-1890.302886456844 pbc="F F F"
C        3.45214016      -1.20641327       2.00731098
C        2.30723309      -0.70541458       1.11470997
C        2.43792910      -1.18818401      -0.32973162
C        2.33397754      -2.62073157      -0.49675302
C        4.21658344      -3.01017669       3.60608331
C        3.06404140      -2.45664220       2.80410551
H        4.34605151      -1.42398636       1.37626327
H        3.75915044      -0.39710339       2.69778615
H        1.32554454      -1.01817518       1.53036690
H        2.29743012       0.40384200       1.12799413
H        1.82577051      -0.61459376      -1.01560352
H        3.57630315      -0.98357934      -0.88075926
C        1.13658617      -3.45605356      -0.57751387
H        5.22145577      -2.63457725       3.36720656
H        2.20543927      -2.24433551       3.47913572
H        2.69979449      -3.25576772       2.12035511
H        0.69643758      -3.43278826      -1.55591315
H        0.34955637      -3.16525083       0.10701957
H        1.32690472      -4.49712344      -0.37418475
O        4.04436146      -3.84380916       4.46451938
O        4.57307315      -2.75069544      -0.56950957
O        3.48352301      -3.38054349      -0.66682679
22
Properties=species:S:1:pos:R:3 energy=-1890.1087477843841 pbc="F F F"
C        3.45311172      -1.21386561       2.00628895
C        2.30321057      -0.71152295       1.12067934
C        2.42906616      -1.19139799      -0.32230751
C        2.32654217      -2.61682524      -0.50097053
C        4.21538956      -3.00554173       3.61925386
C        3.06101329      -2.45227687       2.81999990
H        4.33891839      -1.44638419       1.36846512
H        3.77520979      -0.39981261       2.68392053
H        1.32340878      -1.02830826       1.53960715
H        2.29236665       0.39774331       1.13879980
H        1.85456998      -0.60089611      -1.01716746
H        3.60374510      -1.01312152      -0.91819917
C        1.13490055      -3.45922384      -0.57899665
H        5.21597412      -2.60520698       3.40537737
H        2.20978099      -2.22421183       3.50000317
H        2.68429406      -3.25599202       2.14855758
H        0.72695114      -3.48444390      -1.56761030
H        0.32294835      -3.14689536       0.06224132
H        1.31775874      -4.48619538      -0.32467955
O        4.04850360      -3.86592846       4.45130917
O        4.56549709      -2.71078077      -0.59646688
O        3.47612621      -3.36101468      -0.70204421
22
Properties=species:S:1:pos:R:3 energy=-1889.8839469416992 pbc="F F F"
C        3.45404115      -1.22165953       2.00533806
C        2.29905646      -0.71789314       1.12682008
C        2.42008930      -1.19446731      -0.31484701
C        2.31906146      -2.61275685      -0.50542300
C        4.21419709      -3.00086929       3.63272721
C        3.05804780      -2.44764058       2.83619353
H        4.33143898      -1.46948444       1.36117092
H        3.79129282      -0.40318203       2.66980760
H        1.32123888      -1.03897007       1.54863184
H        2.28721617       0.39131998       1.14989154
H        1.88363777      -0.58778194      -1.01783591
H        3.63121261      -1.04163521      -0.95780929
C        1.13334646      -3.46263299      -0.58061274
H        5.20979381      -2.57648305       3.44442528
H        2.21452980      -2.20347319       3.52081346
H        2.66868336      -3.25568325       2.17735542
H        0.75781275      -3.53519232      -1.57757211
H        0.29795183      -3.13001480       0.01689892
H        1.30797504      -4.47405100      -0.27657735
O        4.05332789      -3.88712048       4.43782600
O        4.55716895      -2.67119519      -0.62337234
O        3.46816663      -3.34123631      -0.73778912
22
Properties=species:S:1:pos:R:3 energy=-1889.6419953463048 pbc="F F F"
C        3.45492408      -1.22979115       2.00446306
C        2.29478569      -0.72452521       1.13311711
C        2.41103773      -1.19739827      -0.30736147
C        2.31154982      -2.60853002      -0.51010881
C        4.21300473      -2.99615748       3.64649063
C        3.05515069      -2.44273730       2.85266760
H        4.32361489      -1.49326145       1.35439013
H        3.80738229      -0.40721284       2.65546068
H        1.31904026      -1.05014523       1.55743150
H        2.28198193       0.38457195       1.16125101
H        1.91294345      -0.57524179      -1.01763357
H        3.65866087      -1.06913667      -0.99945017
C        1.13193337      -3.46625472      -0.58236129
H        5.20291870      -2.54843629       3.48430215
H        2.21968895      -2.18214582       3.54154136
H        2.65298100      -3.25483270       2.20672295
H        0.78897899      -3.58499945      -1.58580523
H        0.27457448      -3.11460854      -0.02894872
H        1.29756871      -4.46073866      -0.22991798
O        4.05882687      -3.90736671       4.42409459
O        4.54808993      -2.63193623      -0.65026679
O        3.45964957      -3.32121842      -0.77401774
22
Properties=species:S:1:pos:R:3 energy=-1889.399811268843 pbc="F F F"
C        3.45575614      -1.23825661       2.00366867
C        2.29041316      -0.73141922       1.13955534
C        2.40195064      -1.20019715      -0.29986225
C        2.30402163      -2.60414835      -0.51502635
C        4.21181117      -2.99140437       3.66053137
C        3.05232771      -2.43757103       2.86940333
H        4.31544773      -1.51768960       1.34813221
H        3.82346099      -0.41190620       2.64089309
H        1.31681832      -1.06181834       1.56599663
H        2.27666716       0.37749919       1.17285987
H        1.94245663      -0.56326622      -1.01658513
H        3.68604508      -1.09564219      -1.04298235
C        1.13067078      -3.47006273      -0.58424144
H        5.19535270      -2.52109754       3.52495983
H        2.22526171      -2.16025596       3.56216165
H        2.63720555      -3.25343167       2.23663446
H        0.82040645      -3.63383120      -1.59231632
H        0.25282398      -3.10067597      -0.07524270
H        1.28655487      -4.44630673      -0.18474127
O        4.06499305      -3.92664866       4.41013968
O        4.53826123      -2.59300144      -0.67719106
O        3.45058030      -3.30097100      -0.81068626
22
Properties=species:S:1:pos:R:3 energy=-1889.1770424778415 pbc="F F F"
C        3.45653296      -1.24705205       2.00295962
C        2.28595381      -0.73857525       1.14611968
C        2.39286721      -1.20287024      -0.29236070
C        2.29649127      -2.59961547      -0.52017399
C        4.21061513      -2.98660807       3.67483670
C        3.04958461      -2.43214575       2.88638193
H        4.30693912      -1.54274323       1.34240663
H        3.83951171      -0.41726330       2.62611816
H        1.31457849      -1.07397403       1.57431777
H        2.27127511       0.37010166       1.18469977
H        1.97214689      -0.55184576      -1.01471529
H        3.71332045      -1.12116804      -1.08826638
C        1.12956818      -3.47403075      -0.58625234
H        5.18709969      -2.49449763       3.56635018
H        2.23125133      -2.13782982       3.58264911
H        2.62137560      -3.25147144       2.26706425
H        0.85205172      -3.68165350      -1.59711204
H        0.23270800      -3.08821648      -0.12192412
H        1.27494864      -4.43080357      -0.14108705
O        4.07181898      -3.94494784       4.39598599
O        4.52768401      -2.55438836      -0.70418600
O        3.44096409      -3.28050408      -0.84775089
22
Properties=species:S:1:pos:R:3 energy=-1888.994054918675 pbc="F F F"
C        3.45725018      -1.25617358       2.00234065
C        2.28142254      -0.74599335       1.15279505
C        2.38382664      -1.20542381      -0.28486819
C        2.28897314      -2.59493498      -0.52555012
C        4.20941530      -2.98176667       3.68939386
C        3.04692714      -2.42646546       2.90358462
H        4.29809065      -1.56839670       1.33722286
H        3.85551723      -0.42328531       2.61114922
H        1.31232617      -1.08659690       1.58238542
H        2.26580902       0.36237933       1.19675237
H        2.00198382      -0.54097099      -1.01204875
H        3.74044215      -1.14573050      -1.13516279
C        1.12863506      -3.47813247      -0.58839313
H        5.17816354      -2.46866740       3.60842507
H        2.23766108      -2.11489365       3.60297849
H        2.60550972      -3.24894332       2.29798663
H        0.88387138      -3.72843227      -1.60019905
H        0.21423422      -3.07722946      -0.16893407
H        1.26276513      -4.41427757      -0.09899514
O        4.07929716      -3.96224574       4.38165825
O        4.51635948      -2.51609454      -0.73129244
O        3.43080624      -3.25982767      -0.88516782
22
Properties=species:S:1:pos:R:3 energy=-1888.8685233603962 pbc="F F F"
C        3.45790343      -1.26561736       2.00181648
C        2.27683427      -0.75367359       1.15956635
C        2.37486813      -1.20786415      -0.27739606
C        2.28148162      -2.59011050      -0.53115311
C        4.20821038      -2.97687824       3.70419013
C        3.04436107      -2.42053414       2.92099261
H        4.28890393      -1.59462437       1.33259035
H        3.87146032      -0.42997341       2.59599958
H        1.31006677      -1.09967156       1.59019011
H        2.26027214       0.35433215       1.20899934
H        2.03193701      -0.53063244      -1.00861019
H        3.76736541      -1.16934584      -1.18353212
C        1.12788092      -3.48234160      -0.59066296
H        5.16854814      -2.44363769       3.65113636
H        2.24449422      -2.09147368       3.62312456
H        2.58962651      -3.24583858       2.32937590
H        0.91582203      -3.77413343      -1.60158399
H        0.19741030      -3.06771429      -0.21621365
H        1.25001946      -4.39677709      -0.05850537
O        4.08742014      -3.97852386       4.36718120
O        4.50428881      -2.47811753      -0.75855122
O        3.42011200      -3.23895179      -0.92289327
22
Properties=species:S:1:pos:R:3 energy=-1888.8121481212916 pbc="F F F"
C        3.45848834      -1.27537950       2.00139185
C        2.27220392      -0.76161603       1.16641850
C        2.36603085      -1.21019754      -0.26995567
C        2.27403109      -2.58514564      -0.53698135
C        4.20699907      -2.97194090       3.71921276
C        3.04189214      -2.41435577       2.93858711
H        4.27938058      -1.62140059       1.32851858
H        3.88732378      -0.43732878       2.58068257
H        1.30780570      -1.11318263       1.59772235
H        2.25466771       0.34596008       1.22142232
H        2.06197605      -0.52082068      -1.00442432
H        3.79404540      -1.19203036      -1.23323492
C        1.12731524      -3.48663185      -0.59306098
H        5.15825739      -2.41943933       3.69443590
H        2.25175400      -2.06759613       3.64306211
H        2.57374454      -3.24214853       2.36120636
H        0.94786025      -3.81872292      -1.60127354
H        0.18224392      -3.05967038      -0.26370396
H        1.23672673      -4.37835049      -0.01965758
O        4.09618042      -3.99376372       4.35257955
O        4.49147320      -2.44045486      -0.78600319
O        3.40888667      -3.21788644      -0.96088344
22
Properties=species:S:1:pos:R:3 energy=-1888.8303841208904 pbc="F F F"
C        3.45900053      -1.28545615       2.00107149
C        2.26754641      -0.76982074       1.17333640
C        2.35735401      -1.21243027      -0.26255838
C        2.26663596      -2.58004402      -0.54303322
C        4.20578008      -2.96695272       3.73444900
C        3.03952610      -2.40793436       2.95634934
H        4.26952219      -1.64869974       1.32501702
H        3.90309039      -0.44535260       2.56521151
H        1.30554838      -1.12711472       1.60497266
H        2.24899898       0.33726309       1.23400298
H        2.09207052      -0.51152624      -0.99951582
H        3.82043732      -1.21380032      -1.28413173
C        1.12694752      -3.49097694      -0.59558632
H        5.14729515      -2.39610316       3.73827557
H        2.25944369      -2.04328724       3.66276590
H        2.55788241      -3.23786446       2.39345231
H        0.97994264      -3.86216664      -1.59927434
H        0.16874275      -3.05309710      -0.31134609
H        1.22290206      -4.35904615       0.01750841
O        4.10557055      -4.00794681       4.33787804
O        4.47791384      -2.40310408      -0.81368919
O        3.39713552      -3.19664165      -0.99909453
22
Properties=species:S:1:pos:R:3 energy=-1888.926670557816 pbc="F F F"
C        3.45943564      -1.29584343       2.00086012
C        2.26287664      -0.77828777       1.18030498
C        2.34887680      -1.21456863      -0.25521555
C        2.25931059      -2.57480925      -0.54930710
C        4.20455211      -2.96191180       3.74988612
C        3.03726871      -2.40127388       2.97426051
H        4.25933039      -1.67649615       1.32209512
H        3.91874293      -0.45404603       2.54959974
H        1.30330022      -1.14145243       1.61193156
H        2.24326919       0.32824114       1.24672298
H        2.12219001      -0.50273969      -0.99390940
H        3.84649639      -1.23467200      -1.33608309
C        1.12678724      -3.49535056      -0.59823814
H        5.13566533      -2.37366001       3.78260721
H        2.26756655      -2.01857323       3.68221070
H        2.54205869      -3.23297765       2.42608805
H        1.01202577      -3.90443053      -1.59559305
H        0.15691447      -3.04799384      -0.35908114
H        1.20856056      -4.33891244       0.05295277
O        4.11558305      -4.02105464       4.32310140
O        4.46361190      -2.36606274      -0.84165004
O        3.38486383      -3.17522742      -1.03748274
22
Properties=species:S:1:pos:R:3 energy=-1889.100613903042 pbc="F F F"
C        3.45978931      -1.30653748       2.00076248
C        2.25820955      -0.78701721       1.18730915
C        2.34063840      -1.21661888      -0.24793853
C        2.25206939      -2.56944495      -0.55580137
C        4.20331385      -2.95681623       3.76551138
C        3.03512572      -2.39437832       2.99230183
H        4.24880677      -1.70476419       1.31976235
H        3.93426418      -0.46341027       2.53386056
H        1.30106662      -1.15618039       1.61858956
H        2.23748158       0.31889418       1.25956397
H        2.15230412      -0.49445158      -0.98762975
H        3.87217778      -1.25466168      -1.38894954
C        1.12684390      -3.49972643      -0.60101557
H        5.12337179      -2.35214072       3.82738269
H        2.27612584      -1.99348035       3.70137128
H        2.52629197      -3.22747940       2.45908790
H        1.04406624      -3.94548051      -1.59023634
H        0.14676675      -3.04436001      -0.40685020
H        1.19371735      -4.31799772       0.08663568
O        4.12621043      -4.03306870       4.30827435
O        4.44856859      -2.32932839      -0.86992660
O        3.37207687      -3.15365378      -1.07600428
22
Properties=species:S:1:pos:R:3 energy=-1889.3277473989938 pbc="F F F"
C        3.46005715      -1.31753443       2.00078330
C        2.25356005      -0.79600910       1.19433381
C        2.33267801      -1.21858732      -0.24073867
C        2.24492674      -2.56395472      -0.56251440
C        4.20206402      -2.95166410       3.78131203
C        3.03310289      -2.38725168       3.01045452
H        4.23795294      -1.73347823       1.31802817
H        3.94963692      -0.47344648       2.51800731
H        1.29885301      -1.17128320       1.62493719
H        2.23163939       0.30922219       1.27250761
H        2.18238243      -0.48665245      -0.98070156
H        3.89743669      -1.27378564      -1.44259162
C        1.12712698      -3.50407826      -0.60391777
H        5.11041842      -2.33157613       3.87255387
H        2.28512482      -1.96803481       3.72022241
H        2.51060083      -3.22136100       2.49242613
H        1.07602063      -3.98528249      -1.58321085
H        0.13830727      -3.04219498      -0.45459437
H        1.17838755      -4.29635037       0.11851730
O        4.13744523      -4.04397052       4.29342162
O        4.43278507      -2.29289855      -0.89855969
O        3.35877994      -3.13193074      -1.11461535
22
Properties=species:S:1:pos:R:3 energy=-1889.5697671744563 pbc="F F F"
C        3.46023482      -1.32883042       2.00092731
C        2.24894305      -0.80526352       1.20136387
C        2.32503482      -1.22048023      -0.23362733
C        2.23789702      -2.55834219      -0.56944459
C        4.20080130      -2.94645350       3.79727533
C        3.03120597      -2.37989795       3.02869980
H        4.22677052      -1.76261260       1.31690206
H        3.96484394      -0.48415585       2.50205331
H        1.29666479      -1.18674547       1.63096497
H        2.22574588       0.29922511       1.28553556
H        2.21239454      -0.47933285      -0.97314953
H        3.92222834      -1.29206016      -1.49686988
C        1.12764599      -3.50837975      -0.60694388
H        5.09680912      -2.31199706       3.91807262
H        2.29456675      -1.94226285       3.73873886
H        2.49500386      -3.21461375       2.52607707
H        1.10784554      -4.02380241      -1.57452324
H        0.13154369      -3.04149815      -0.50225475
H        1.16258625      -4.27401875       0.14855781
O        4.14927998      -4.05374157       4.27856795
O        4.41626255      -2.25677079      -0.92759017
O        3.34497829      -3.11006830      -1.15327215
22
Properties=species:S:1:pos:R:3 energy=-1889.7985881078503 pbc="F F F"
C        3.46031792      -1.34042157       2.00119924
C        2.24437347      -0.81478052       1.20838426
C        2.31774802      -1.22230389      -0.22661587
C        2.23099463      -2.55261096      -0.57659031
C        4.19952441      -2.94118252       3.81338855
C        3.02944070      -2.37232110       3.04701886
H        4.21526110      -1.79214168       1.31639348
H        3.97986803      -0.49553954       2.48601188
H        1.29450737      -1.20255182       1.63666340
H        2.21980428       0.28890291       1.29862947
H        2.24231002      -0.47248335      -0.96499836
H        3.94650790      -1.30950152      -1.55164485
C        1.12841040      -3.51260461      -0.61009304
H        5.08254776      -2.29343436       3.96389078
H        2.30445489      -1.91619070       3.75689541
H        2.47951964      -3.20722893       2.56001501
H        1.13949754      -4.06100619      -1.56418017
H        0.12648369      -3.04226891      -0.54977244
H        1.14632859      -4.25105124       0.17671737
O        4.16170720      -4.06236338       4.26373806
O        4.39900222      -2.22094265      -0.95705887
O        3.33067722      -3.08807649      -1.19193089
22
Properties=species:S:1:pos:R:3 energy=-1889.9990484997375 pbc="F F F"
C        3.46030210      -1.35230401       2.00160382
C        2.23986623      -0.82456017       1.21537988
C        2.31085681      -1.22406459      -0.21971565
C        2.22423396      -2.54676465      -0.58394994
C        4.19823204      -2.93584926       3.82963894
C        3.02781285      -2.36452513       3.06539293
H        4.20342630      -1.82203982       1.31651188
H        3.99469195      -0.50759875       2.46989636
H        1.29238617      -1.21868685       1.64202302
H        2.21381784       0.27825556       1.31177101
H        2.27209847      -0.46609449      -0.95627273
H        3.97023058      -1.32612599      -1.60677707
C        1.12942972      -3.51672655      -0.61336441
H        5.06763823      -2.27591886       4.00996023
H        2.31479250      -1.88984459       3.77466682
H        2.46416675      -3.19919784       2.59421426
H        1.17093324      -4.09685975      -1.55218830
H        0.12313494      -3.04450664      -0.59708852
H        1.12962966      -4.22749619       0.20295617
O        4.17471941      -4.06981744       4.24895668
O        4.38100524      -2.18541166      -0.98700663
O        3.31588201      -3.06596532      -1.23054777
22
Properties=species:S:1:pos:R:3 energy=-1890.1652054177373 pbc="F F F"
C        3.46018299      -1.36447389       2.00214579
C        2.23543624      -0.83460254       1.22233565
C        2.30440036      -1.22576860      -0.21293801
C        2.21762938      -2.54080687      -0.59152186
C        4.19692289      -2.93045181       3.84601376
C        3.02632817      -2.35651403       3.08380323
H        4.19126773      -1.85228138       1.31726675
H        4.00929851      -0.52033464       2.45372005
H        1.29030659      -1.23513519       1.64703433
H        2.20778980       0.26728301       1.32494183
H        2.30172948      -0.46015682      -0.94699735
H        3.99335157      -1.34194985      -1.66212710
C        1.13071342      -3.52071928      -0.61675711
H        5.05208441      -2.25948140       4.05623282
H        2.32558285      -1.86325076       3.79202786
H        2.44896378      -3.19051176       2.62864911
H        1.20210921      -4.13132901      -1.53855428
H        0.12150512      -3.04821074      -0.64414410
H        1.11250459      -4.20340199       0.22723437
O        4.18830915      -4.07608525       4.23424854
O        4.36227283      -2.15017538      -1.01747428
O        3.30059792      -3.04374480      -1.26907899
22
Properties=species:S:1:pos:R:3 energy=-1890.2970802787868 pbc="F F F"
C        3.45995622      -1.37692733       2.00282987
C        2.23109843      -0.84490769       1.22923647
C        2.29841789      -1.22742222      -0.20629432
C        2.21119529      -2.53474125      -0.59930446
C        4.19559566      -2.92498825       3.86250026
C        3.02499241      -2.34829179       3.10223096
H        4.17878699      -1.88284071       1.31866754
H        4.02367048      -0.53374840       2.43749629
H        1.28827405      -1.25188143       1.65168786
H        2.20172341       0.25598522       1.33812359
H        2.33117263      -0.45466090      -0.93719690
H        4.01582608      -1.35698938      -1.71755546
C        1.13227101      -3.52455651      -0.62027031
H        5.03589018      -2.24415281       4.10266042
H        2.33682918      -1.83643543       3.80895331
H        2.43392931      -3.18116200       2.66329386
H        1.23298205      -4.16437990      -1.52328478
H        0.12160190      -3.05338059      -0.69088027
H        1.09496849      -4.17881701       0.24951214
O        4.20246893      -4.08114832       4.21963837
O        4.34280615      -2.11523135      -1.04850268
O        3.28483023      -3.02142496      -1.30748077
22
Properties=species:S:1:pos:R:3 energy=-1890.3983162320492 pbc="F F F"
C        3.45961742      -1.38966047       2.00366079
C        2.22686770      -0.85547568       1.23606726
C        2.29294857      -1.22903173      -0.19979593
C        2.20494608      -2.52857138      -0.60729612
C        4.19424907      -2.91945668       3.87908571
C        3.02381133      -2.33986239       3.12065733
H        4.16598570      -1.91369217       1.32072371
H        4.03779063      -0.54784119       2.42123840
H        1.28629396      -1.26891020       1.65597412
H        2.19562190       0.24436216       1.35129795
H        2.36039752      -0.44959727      -0.92689609
H        4.03760930      -1.37126086      -1.77292271
C        1.13411197      -3.52821194      -0.62390313
H        5.01905944      -2.22996393       4.14919488
H        2.34853477      -1.80942484       3.82541794
H        2.41908193      -3.17113985       2.69812283
H        1.26350835      -4.19597834      -1.50638644
H        0.12343296      -3.06001559      -0.73723812
H        1.07703647      -4.15378960       0.26974965
O        4.21719128      -4.08498815       4.20515090
O        4.32260641      -2.08057711      -1.08013265
O        3.26858424      -2.99901579      -1.34570929
22
Properties=species:S:1:pos:R:3 energy=-1890.47446624626 pbc="F F F"
C        3.45916222      -1.40266943       2.00464329
C        2.22275899      -0.86630659       1.24281294
C        2.28803160      -1.23060340      -0.19345420
C        2.19889613      -2.52230089      -0.61549520
C        4.19288180      -2.91385519       3.89575737
C        3.02279067      -2.33122982       3.13906357
H        4.15286545      -1.94481012       1.32344474
H        4.05164177      -0.56261421       2.40495970
H        1.28437174      -1.28620611       1.65988363
H        2.18948853       0.23241378       1.36444657
H        2.38937374      -0.44495649      -0.91611961
H        4.05865642      -1.38478056      -1.82808938
C        1.13624580      -3.53165929      -0.62765474
H        5.00159606      -2.21694559       4.19578806
H        2.36070288      -1.78224521       3.84139651
H        2.40444022      -3.16043659       2.73311031
H        1.29364468      -4.22609025      -1.48786592