22
Properties=species:S:1:pos:R:3 energy=-1888.8121481212916 pbc="F F F"
C        3.45848834      -1.27537950       2.00139185
C        2.27220392      -0.76161603       1.16641850
C        2.36603085      -1.21019754      -0.26995567
C        2.27403109      -2.58514564      -0.53698135
C        4.20699907      -2.97194090       3.71921276
C        3.04189214      -2.41435577       2.93858711
H        4.27938058      -1.62140059       1.32851858
H        3.88732378      -0.43732878       2.58068257
H        1.30780570      -1.11318263       1.59772235
H        2.25466771       0.34596008       1.22142232
H        2.06197605      -0.52082068      -1.00442432
H        3.79404540      -1.19203036      -1.23323492
C        1.12731524      -3.48663185      -0.59306098
H        5.15825739      -2.41943933       3.69443590
H        2.25175400      -2.06759613       3.64306211
H        2.57374454      -3.24214853       2.36120636
H        0.94786025      -3.81872292      -1.60127354
H        0.18224392      -3.05967038      -0.26370396
H        1.23672673      -4.37835049      -0.01965758
O        4.09618042      -3.99376372       4.35257955
O        4.49147320      -2.44045486      -0.78600319
O        3.40888667      -3.21788644      -0.96088344
