 Entering Gaussian System, Link 0=g09
 Initial command:
 /apps/applications/gaussian/G09.D01/2/default/g09/l1.exe "/nobackup/chmrsh/Scratch/Gau-67812.inp" -scrdir="/nobackup/chmrsh/Scratch/"
 Entering Link 1 = /apps/applications/gaussian/G09.D01/2/default/g09/l1.exe PID=     67813.
  
 Copyright (c) 1988,1990,1992,1993,1995,1998,2003,2009,2013,
            Gaussian, Inc.  All Rights Reserved.
  
 This is part of the Gaussian(R) 09 program.  It is based on
 the Gaussian(R) 03 system (copyright 2003, Gaussian, Inc.),
 the Gaussian(R) 98 system (copyright 1998, Gaussian, Inc.),
 the Gaussian(R) 94 system (copyright 1995, Gaussian, Inc.),
 the Gaussian 92(TM) system (copyright 1992, Gaussian, Inc.),
 the Gaussian 90(TM) system (copyright 1990, Gaussian, Inc.),
 the Gaussian 88(TM) system (copyright 1988, Gaussian, Inc.),
 the Gaussian 86(TM) system (copyright 1986, Carnegie Mellon
 University), and the Gaussian 82(TM) system (copyright 1983,
 Carnegie Mellon University). Gaussian is a federally registered
 trademark of Gaussian, Inc.
  
 This software contains proprietary and confidential information,
 including trade secrets, belonging to Gaussian, Inc.
  
 This software is provided under written license and may be
 used, copied, transmitted, or stored only in accord with that
 written license.
  
 The following legend is applicable only to US Government
 contracts under FAR:
  
                    RESTRICTED RIGHTS LEGEND
  
 Use, reproduction and disclosure by the US Government is
 subject to restrictions as set forth in subparagraphs (a)
 and (c) of the Commercial Computer Software - Restricted
 Rights clause in FAR 52.227-19.
  
 Gaussian, Inc.
 340 Quinnipiac St., Bldg. 40, Wallingford CT 06492
  
  
 ---------------------------------------------------------------
 Warning -- This program may not be used in any manner that
 competes with the business of Gaussian, Inc. or will provide
 assistance to any competitor of Gaussian, Inc.  The licensee
 of this program is prohibited from giving any competitor of
 Gaussian, Inc. access to this program.  By using this program,
 the user acknowledges that Gaussian, Inc. is engaged in the
 business of creating and licensing software in the field of
 computational chemistry and represents and warrants to the
 licensee that it is not a competitor of Gaussian, Inc. and that
 it will not use this program in any manner prohibited above.
 ---------------------------------------------------------------
  

 Cite this work as:
 Gaussian 09, Revision D.01,
 M. J. Frisch, G. W. Trucks, H. B. Schlegel, G. E. Scuseria, 
 M. A. Robb, J. R. Cheeseman, G. Scalmani, V. Barone, B. Mennucci, 
 G. A. Petersson, H. Nakatsuji, M. Caricato, X. Li, H. P. Hratchian, 
 A. F. Izmaylov, J. Bloino, G. Zheng, J. L. Sonnenberg, M. Hada, 
 M. Ehara, K. Toyota, R. Fukuda, J. Hasegawa, M. Ishida, T. Nakajima, 
 Y. Honda, O. Kitao, H. Nakai, T. Vreven, J. A. Montgomery, Jr., 
 J. E. Peralta, F. Ogliaro, M. Bearpark, J. J. Heyd, E. Brothers, 
 K. N. Kudin, V. N. Staroverov, T. Keith, R. Kobayashi, J. Normand, 
 K. Raghavachari, A. Rendell, J. C. Burant, S. S. Iyengar, J. Tomasi, 
 M. Cossi, N. Rega, J. M. Millam, M. Klene, J. E. Knox, J. B. Cross, 
 V. Bakken, C. Adamo, J. Jaramillo, R. Gomperts, R. E. Stratmann, 
 O. Yazyev, A. J. Austin, R. Cammi, C. Pomelli, J. W. Ochterski, 
 R. L. Martin, K. Morokuma, V. G. Zakrzewski, G. A. Voth, 
 P. Salvador, J. J. Dannenberg, S. Dapprich, A. D. Daniels, 
 O. Farkas, J. B. Foresman, J. V. Ortiz, J. Cioslowski, 
 and D. J. Fox, Gaussian, Inc., Wallingford CT, 2013.
 
 ******************************************
 Gaussian 09:  ES64L-G09RevD.01 24-Apr-2013
                18-Feb-2021 
 ******************************************
 %nprocshared=1
 Will use up to    1 processors via shared memory.
 ----------------------------------------------------------------------
 #P pm6 scf=qc opt(calcall, ts, noeigentest, cartesian,maxcycle=100) No
 Symm
 ----------------------------------------------------------------------
 1/5=1,6=100,10=4,11=1,14=-1,18=10,26=1,38=1/1,3;
 2/12=2,15=1,17=6,18=5,29=2,40=1/2;
 3/5=2,16=1,25=1,41=3900000,71=2,140=1/1,2,3;
 4/35=1/1;
 5/5=2,8=3,35=1,38=5/8;
 8/6=4,10=90,11=11/1;
 11/6=1,8=1,9=11,15=111,16=1,31=1/1,2,10;
 10/6=1,31=1/2;
 6/7=2,8=2,9=2,10=2,18=1,28=1/1;
 7/7=1,10=1,25=1,30=1/1,2,3,16;
 1/5=1,6=100,10=4,11=1,14=-1,18=10,26=1/3(3);
 2/15=1,29=1/2;
 7/7=1,8=1,9=1,25=1,30=1,44=-1/16;
 99/12=1/99;
 2/15=1,29=1/2;
 3/5=2,16=1,25=1,41=3900000,71=2,135=20,140=1/1,2,3;
 4/5=5,16=3,35=1/1;
 5/5=2,8=3,35=1,38=5/8;
 8/6=4,10=90,11=11/1;
 11/6=1,8=1,9=11,15=111,16=1,31=1/1,2,10;
 10/6=1,31=1/2;
 7/7=1,10=1,25=1,30=1/1,2,3,16;
 1/5=1,6=100,10=4,11=1,14=-1,18=10,26=1/3(-8);
 2/15=1,29=1/2;
 6/7=2,8=2,9=2,10=2,18=1,19=2,28=1/1;
 7/7=1,8=1,9=1,25=1,30=1,44=-1/16;
 99/12=1/99;
 Leave Link    1 at Thu Feb 18 23:36:23 2021, MaxMem=           0 cpu:         0.0
 (Enter /apps/applications/gaussian/G09.D01/2/default/g09/l101.exe)
 ------------------------------
 Gaussian input prepared by ASE
 ------------------------------
 Symbolic Z-matrix:
 Charge =  0 Multiplicity = 2
 O                    -1.11956   1.56253   3.41154 
 C                    -0.99715   0.98338   2.38248 
 C                    -0.98872   1.45164   0.96875 
 C                     0.41994   1.41463   0.36477 
 C                     1.09391   0.03735   0.42137 
 C                     0.29231  -1.117    -0.17428 
 H                     0.90581  -2.04232  -0.20966 
 C                    -0.32334  -0.77969  -1.53629 
 O                    -1.39817  -0.24116  -1.6451 
 C                     0.51864  -1.16784  -2.71433 
 H                    -0.84715  -0.33345   2.42384 
 H                    -1.66673   0.79508   0.3567 
 H                    -1.41332   2.47474   0.89561 
 H                     0.35211   1.75938  -0.68868 
 H                     1.06727   2.15287   0.88215 
 H                     2.082     0.09535  -0.07825 
 H                     1.31355  -0.22811   1.48244 
 H                     1.56394  -0.85173  -2.61275 
 H                     0.51854  -2.25807  -2.86233 
 H                     0.12697  -0.72585  -3.64459 
 O                    -0.60207  -1.51835   1.92252 
 O                    -0.89877  -1.4634    0.6541 
 
 NAtoms=     22 NQM=       22 NQMF=       0 NMMI=      0 NMMIF=      0
                NMic=       0 NMicF=      0.
                    Isotopes and Nuclear Properties:
 (Nuclear quadrupole moments (NQMom) in fm**2, nuclear magnetic moments (NMagM)
  in nuclear magnetons)

  Atom         1           2           3           4           5           6           7           8           9          10
 IAtWgt=          16          12          12          12          12          12           1          12          16          12
 AtmWgt=  15.9949146  12.0000000  12.0000000  12.0000000  12.0000000  12.0000000   1.0078250  12.0000000  15.9949146  12.0000000
 NucSpn=           0           0           0           0           0           0           1           0           0           0
 AtZEff=   0.0000000   0.0000000   0.0000000   0.0000000   0.0000000   0.0000000   0.0000000   0.0000000   0.0000000   0.0000000
 NQMom=    0.0000000   0.0000000   0.0000000   0.0000000   0.0000000   0.0000000   0.0000000   0.0000000   0.0000000   0.0000000
 NMagM=    0.0000000   0.0000000   0.0000000   0.0000000   0.0000000   0.0000000   2.7928460   0.0000000   0.0000000   0.0000000
 AtZNuc=   8.0000000   6.0000000   6.0000000   6.0000000   6.0000000   6.0000000   1.0000000   6.0000000   8.0000000   6.0000000

  Atom        11          12          13          14          15          16          17          18          19          20
 IAtWgt=           1           1           1           1           1           1           1           1           1           1
 AtmWgt=   1.0078250   1.0078250   1.0078250   1.0078250   1.0078250   1.0078250   1.0078250   1.0078250   1.0078250   1.0078250
 NucSpn=           1           1           1           1           1           1           1           1           1           1
 AtZEff=   0.0000000   0.0000000   0.0000000   0.0000000   0.0000000   0.0000000   0.0000000   0.0000000   0.0000000   0.0000000
 NQMom=    0.0000000   0.0000000   0.0000000   0.0000000   0.0000000   0.0000000   0.0000000   0.0000000   0.0000000   0.0000000
 NMagM=    2.7928460   2.7928460   2.7928460   2.7928460   2.7928460   2.7928460   2.7928460   2.7928460   2.7928460   2.7928460
 AtZNuc=   1.0000000   1.0000000   1.0000000   1.0000000   1.0000000   1.0000000   1.0000000   1.0000000   1.0000000   1.0000000

  Atom        21          22
 IAtWgt=          16          16
 AtmWgt=  15.9949146  15.9949146
 NucSpn=           0           0
 AtZEff=   0.0000000   0.0000000
 NQMom=    0.0000000   0.0000000
 NMagM=    0.0000000   0.0000000
 AtZNuc=   8.0000000   8.0000000
 Leave Link  101 at Thu Feb 18 23:36:23 2021, MaxMem=    33554432 cpu:         0.1
 (Enter /apps/applications/gaussian/G09.D01/2/default/g09/l103.exe)

 GradGradGradGradGradGradGradGradGradGradGradGradGradGradGradGradGradGrad
 Berny optimization.
 Initialization pass.
 No Z-matrix variables, so optimization will use Cartesian coordinates.
 Trust Radius=3.00D-01 FncErr=1.00D-07 GrdErr=1.00D-07
 Number of steps in this run=    100 maximum allowed number of steps=    132.
 Search for a saddle point of order  1.
 GradGradGradGradGradGradGradGradGradGradGradGradGradGradGradGradGradGrad

 Leave Link  103 at Thu Feb 18 23:36:23 2021, MaxMem=    33554432 cpu:         0.0
 (Enter /apps/applications/gaussian/G09.D01/2/default/g09/l202.exe)
 ---------------------------------------------------------------------------------------------------
                            Z-MATRIX (ANGSTROMS AND DEGREES)
   CD    Cent   Atom    N1       Length/X        N2       Alpha/Y        N3        Beta/Z          J
 ---------------------------------------------------------------------------------------------------
      1      1  O        0  -1.119563          1.562528          3.411539
      2      2  C        0  -0.997146          0.983383          2.382476
      3      3  C        0  -0.988723          1.451641          0.968750
      4      4  C        0   0.419940          1.414628          0.364765
      5      5  C        0   1.093909          0.037353          0.421368
      6      6  C        0   0.292313         -1.117000         -0.174275
      7      7  H        0   0.905808         -2.042322         -0.209661
      8      8  C        0  -0.323339         -0.779685         -1.536294
      9      9  O        0  -1.398172         -0.241157         -1.645100
     10     10  C        0   0.518638         -1.167835         -2.714326
     11     11  H        0  -0.847149         -0.333454          2.423843
     12     12  H        0  -1.666730          0.795076          0.356704
     13     13  H        0  -1.413320          2.474736          0.895607
     14     14  H        0   0.352109          1.759384         -0.688679
     15     15  H        0   1.067271          2.152874          0.882154
     16     16  H        0   2.082001          0.095354         -0.078252
     17     17  H        0   1.313547         -0.228107          1.482438
     18     18  H        0   1.563942         -0.851728         -2.612751
     19     19  H        0   0.518539         -2.258071         -2.862334
     20     20  H        0   0.126966         -0.725847         -3.644589
     21     21  O        0  -0.602065         -1.518349          1.922517
     22     22  O        0  -0.898774         -1.463402          0.654100
 ---------------------------------------------------------------------------------------------------
                         Z-Matrix orientation:                         
 ---------------------------------------------------------------------
 Center     Atomic      Atomic             Coordinates (Angstroms)
 Number     Number       Type             X           Y           Z
 ---------------------------------------------------------------------
      1          8           0       -1.119563    1.562528    3.411539
      2          6           0       -0.997146    0.983383    2.382476
      3          6           0       -0.988723    1.451641    0.968750
      4          6           0        0.419940    1.414628    0.364765
      5          6           0        1.093909    0.037353    0.421368
      6          6           0        0.292313   -1.117000   -0.174275
      7          1           0        0.905808   -2.042322   -0.209661
      8          6           0       -0.323339   -0.779685   -1.536294
      9          8           0       -1.398172   -0.241157   -1.645100
     10          6           0        0.518638   -1.167835   -2.714326
     11          1           0       -0.847149   -0.333454    2.423843
     12          1           0       -1.666730    0.795076    0.356704
     13          1           0       -1.413320    2.474736    0.895607
     14          1           0        0.352109    1.759384   -0.688679
     15          1           0        1.067271    2.152874    0.882154
     16          1           0        2.082001    0.095354   -0.078252
     17          1           0        1.313547   -0.228107    1.482438
     18          1           0        1.563942   -0.851728   -2.612751
     19          1           0        0.518539   -2.258071   -2.862334
     20          1           0        0.126966   -0.725847   -3.644589
     21          8           0       -0.602065   -1.518349    1.922517
     22          8           0       -0.898774   -1.463402    0.654100
 ---------------------------------------------------------------------
                    Distance matrix (angstroms):
                    1          2          3          4          5
     1  O    0.000000
     2  C    1.187167   0.000000
     3  C    2.448802   1.489281   0.000000
     4  C    3.416837   2.503051   1.533134   0.000000
     5  C    4.020788   3.018846   2.576275   1.534381   0.000000
     6  C    4.693754   3.551238   3.089575   2.591523   1.526394
     7  H    5.496377   4.415348   4.145561   3.537872   2.181428
     8  C    5.531816   4.349619   3.420058   2.996915   2.551193
     9  O    5.375919   4.228675   3.140927   3.175959   3.249358
    10  C    6.903970   5.736090   4.764330   4.019908   3.408224
    11  H    2.155110   1.325998   2.307358   2.983472   2.813381
    12  H    3.196935   2.141858   1.124887   2.176718   2.863469
    13  H    2.692272   2.146652   1.110115   2.183223   3.528730
    14  H    4.360775   3.443060   2.153975   1.110496   2.178959
    15  H    3.395370   2.807222   2.174014   1.109836   2.165286
    16  H    4.957948   4.040411   3.516401   2.167763   1.108743
    17  H    3.584387   2.759906   2.895838   2.178602   1.115607
    18  H    7.022955   5.905853   4.964751   3.912890   3.196447
    19  H    7.526077   6.349201   5.541751   4.890052   4.047557
    20  H    7.521930   6.364794   5.221984   4.554381   4.248466
    21  O    3.460750   2.574163   3.143249   3.474686   2.747724
    22  O    4.099813   2.997285   2.933355   3.178959   2.505437
                    6          7          8          9         10
     6  C    0.000000
     7  H    1.110788   0.000000
     8  C    1.532287   2.205677   0.000000
     9  O    2.405861   3.257761   1.207111   0.000000
    10  C    2.550621   2.681040   1.499115   2.382464   0.000000
    11  H    2.943218   3.595613   4.019476   4.107121   5.381668
    12  H    2.788516   3.871634   2.804998   2.270049   4.249715
    13  H    4.117572   5.196517   4.206359   3.719072   5.480183
    14  H    2.922631   3.871564   2.760716   2.824958   3.563648
    15  H    3.522595   4.337949   4.047541   4.265771   4.925726
    16  H    2.163794   2.443431   2.945716   3.831430   3.314911
    17  H    2.139567   2.514125   3.477985   4.139455   4.373534
    18  H    2.762892   2.761430   2.173886   3.175416   1.096769
    19  H    2.928973   2.689461   2.157027   3.037002   1.100237
    20  H    3.496201   3.760111   2.156521   2.561040   1.101885
    21  O    2.314634   2.663534   3.547772   3.872066   4.783215
    22  O    1.491606   2.082726   2.365675   2.651340   3.666430
                   11         12         13         14         15
    11  H    0.000000
    12  H    2.493663   0.000000
    13  H    3.246842   1.782103   0.000000
    14  H    3.937764   2.469499   2.477586   0.000000
    15  H    3.496232   3.097495   2.501421   1.770256   0.000000
    16  H    3.876116   3.838200   4.339024   2.476720   2.487056
    17  H    2.359226   3.346077   3.884010   3.096487   2.467805
    18  H    5.607963   4.686883   5.677854   3.462441   4.635588
    19  H    5.789035   4.945636   6.344577   4.570823   5.811947
    20  H    6.158631   4.641217   5.764511   3.868393   5.446339
    21  O    1.309721   2.989518   4.202072   4.297944   4.164963
    22  O    2.100342   2.403939   3.978946   3.708654   4.122474
                   16         17         18         19         20
    16  H    0.000000
    17  H    1.769435   0.000000
    18  H    2.754820   4.149961   0.000000
    19  H    3.966628   4.861053   1.770017   0.000000
    20  H    4.149132   5.286031   1.773538   1.764359   0.000000
    21  O    3.716359   2.351162   5.069973   4.969682   5.670292
    22  O    3.442540   2.665795   4.136597   3.873704   4.480497
                   21         22
    21  O    0.000000
    22  O    1.303816   0.000000
 Symmetry turned off by external request.
 Stoichiometry    C7H11O4(2)
 Framework group  C1[X(C7H11O4)]
 Deg. of freedom    60
 Full point group                 C1      NOp   1
 Rotational constants (GHZ):      1.9525498      0.7330953      0.6644958
 Leave Link  202 at Thu Feb 18 23:36:23 2021, MaxMem=    33554432 cpu:         0.0
 (Enter /apps/applications/gaussian/G09.D01/2/default/g09/l301.exe)
 Standard basis: VSTO-6G (5D, 7F)
 Ernie: Thresh=  0.10000D-02 Tol=  0.10000D-05 Strict=F.
  NNHCO=     0 NNPyr=     0 NCTC=     0               EPep=         0.000000000
    EC=       318.363337002  ECS=         4.381105804   EG=         0.370014042
   EHC=         0.001457313  EAt=       -76.388488019  AtH=         3.199295150
 EPDDG=         0.000000000  ECC=       323.115914160 EAtT=        79.587783169
    55 basis functions,   330 primitive gaussians,    55 cartesian basis functions
    32 alpha electrons       31 beta electrons
       nuclear repulsion energy       402.7036973290 Hartrees.
 IExCor=    0 DFT=F Ex=HF Corr=None ExCW=0 ScaHFX=  1.000000
 ScaDFX=  1.000000  1.000000  1.000000  1.000000 ScalE2=  1.000000  1.000000
 IRadAn=      0 IRanWt=     -1 IRanGd=            0 ICorTp=0 IEmpDi=  4
 Integral buffers will be    131072 words long.
 Regular integral format.
 Two-electron integral symmetry is turned off.
 Leave Link  301 at Thu Feb 18 23:36:23 2021, MaxMem=    33554432 cpu:         0.0
 (Enter /apps/applications/gaussian/G09.D01/2/default/g09/l302.exe)
 Do NDO integrals.
 NPDir=0 NMtPBC=     1 NCelOv=     1 NCel=       1 NClECP=     1 NCelD=      1
         NCelK=      1 NCelE2=     1 NClLst=     1 CellRange=     0.0.
 One-electron integrals computed using PRISM.
 NBasis=    55 RedAO= F EigKep=  0.00D+00  NBF=    55
 NBsUse=    55 1.00D-04 EigRej=  0.00D+00 NBFU=    55
 Leave Link  302 at Thu Feb 18 23:36:23 2021, MaxMem=    33554432 cpu:         0.1
 (Enter /apps/applications/gaussian/G09.D01/2/default/g09/l303.exe)
 DipDrv:  MaxL=1.
 Leave Link  303 at Thu Feb 18 23:36:23 2021, MaxMem=    33554432 cpu:         0.0
 (Enter /apps/applications/gaussian/G09.D01/2/default/g09/l401.exe)
 Simple Huckel Guess.
 JPrj=0 DoOrth=F DoCkMO=F.
 Initial guess <Sx>= 0.0000 <Sy>= 0.0000 <Sz>= 0.5000 <S**2>= 0.7500 S= 0.5000
 Leave Link  401 at Thu Feb 18 23:36:23 2021, MaxMem=    33554432 cpu:         0.0
 (Enter /apps/applications/gaussian/G09.D01/2/default/g09/l508.exe)
 Direct SCF.
 Tight linear equation convergence will be used.
 UPM6 wavefunction.
 Quadratic Convergence SCF Method.
 Line search only if initial step raises energy.
 Two-electron integral symmetry not used.
 ReadGW:  IGet=1 IStart=       59293 Next=       59293 LGW=           0.
 Keep J ints in memory in canonical form, NReq=909807.
 FoFCou: FMM=F IPFlag=           0 FMFlag=           0 FMFlg1=           0
         NFxFlg=           0 DoJE=F BraDBF=F KetDBF=F FulRan=T
         wScrn=  0.000000 ICntrl=     600 IOpCl=  2 I1Cent=           0 NGrid=           0
         NMat0=    1 NMatS0=    121 NMatT0=    0 NMatD0=    1 NMtDS0=    0 NMtDT0=    0
 Symmetry not used in FoFCou.
 Iteration   1 EE= 0.523659976382646                                    Grad=5.301D-01 Max rot=    3.5913 deg.
 Gradient too large for Newton-Raphson -- use scaled steepest descent instead.
 Alpha Gap=     0.319 HL deriv= 5.24D-04
  Beta Gap=     0.343 HL deriv= 1.89D-02
     ILin= 1 X=0.000D+00 Y= 5.236599763826D-01 DE= 0.00D+00 F= -7.16D-01
     ILin= 2 X=3.000D-01 Y= 3.258136611411D-01 DE=-1.98D-01 F= -6.00D-01
     ILin= 3 X=5.000D-01 Y= 2.142166669652D-01 DE=-3.09D-01 F= -5.15D-01
     ILin= 4 X=8.000D-01 Y= 8.053616464883D-02 DE=-4.43D-01 F= -3.74D-01
     ILin= 5 X=1.200D+00 Y=-2.812079559510D-02 DE=-5.52D-01 F= -1.65D-01
     ILin= 6 X=2.000D+00 Y= 2.482197342476D-02 DE=-4.99D-01 F=  3.07D-01
     An  expanding polynomial of degree  6 produced  1.4913
 Iteration   2 EE=-0.524370574549948E-01 Delta-E=       -0.576097033838 Grad=1.490D-01 Max rot=    1.3118 deg.
 Gradient too large for Newton-Raphson -- use scaled steepest descent instead.
 Alpha Gap=     0.350 HL deriv= 8.78D-06
  Beta Gap=     0.352 HL deriv= 1.03D-02
     ILin= 1 X=0.000D+00 Y=-5.243705745499D-02 DE= 0.00D+00 F= -5.56D-02
     ILin= 2 X=7.000D-01 Y=-8.172595474912D-02 DE=-2.93D-02 F= -2.80D-02
     ILin= 3 X=1.200D+00 Y=-9.069452920482D-02 DE=-3.83D-02 F= -7.87D-03
     ILin= 4 X=2.100D+00 Y=-8.132085059697D-02 DE=-2.89D-02 F=  2.88D-02
     An  expanding polynomial of degree  4 produced  1.3948
 Iteration   3 EE=-0.914596143955464E-01 Delta-E=       -0.039022556941 Grad=5.303D-02 Max rot=    0.5177 deg.
 Gradient too large for Newton-Raphson -- use scaled steepest descent instead.
 Alpha Gap=     0.353 HL deriv= 4.94D-05
  Beta Gap=     0.361 HL deriv= 5.34D-03
     ILin= 1 X=0.000D+00 Y=-9.145961439555D-02 DE= 0.00D+00 F= -8.13D-03
     ILin= 2 X=1.400D+00 Y=-9.670815193931D-02 DE=-5.25D-03 F=  6.74D-04
     Accept linear search using points  1 and  2.
     An  expanding polynomial of degree  2 produced  1.3508
     Minimum is close to point  2 DX= -4.92D-02 DF= -1.17D-05 DXR=  3.64D-02 DFR=  2.24D-03 which will be used.
 Iteration   4 EE=-0.967081519393105E-01 Delta-E=       -0.005248537544 Grad=2.737D-02 Max rot=    0.3027 deg.
 Gradient too large for Newton-Raphson -- use scaled steepest descent instead.
 Alpha Gap=     0.357 HL deriv= 5.86D-04
  Beta Gap=     0.356 HL deriv= 1.99D-03
     ILin= 1 X=0.000D+00 Y=-9.670815193931D-02 DE= 0.00D+00 F= -2.08D-03
     ILin= 2 X=1.400D+00 Y=-9.806054913111D-02 DE=-1.35D-03 F=  1.43D-04
     Accept linear search using points  1 and  2.
     An  expanding polynomial of degree  2 produced  1.3589
     Minimum is close to point  2 DX= -4.11D-02 DF= -2.08D-06 DXR=  3.02D-02 DFR=  1.54D-03 which will be used.
 Iteration   5 EE=-0.980605491311053E-01 Delta-E=       -0.001352397192 Grad=1.507D-02 Max rot=    0.1595 deg.
 Gradient too large for Newton-Raphson -- use scaled steepest descent instead.
 Alpha Gap=     0.358 HL deriv= 2.68D-04
  Beta Gap=     0.358 HL deriv= 2.51D-03
     ILin= 1 X=0.000D+00 Y=-9.806054913111D-02 DE= 0.00D+00 F= -6.68D-04
     ILin= 2 X=1.400D+00 Y=-9.852689046897D-02 DE=-4.66D-04 F=  2.40D-06
     Accept linear search using points  1 and  2.
     An  expanding polynomial of degree  2 produced  1.3980
     Minimum is close to point  2 DX= -2.03D-03 DF= -1.74D-09 DXR=  1.45D-03 DFR=  3.74D-06 which will be used.
 Iteration   6 EE=-0.985268904689747E-01 Delta-E=       -0.000466341338 Grad=8.959D-03 Max rot=    0.1429 deg.
 QCNR:  CnvC1=3.85D-09 CnvC2=3.85D-08
 LinEq1:  Iter=  0 NonCon=     1 RMS=4.19D-04 Max=9.11D-03 NDo=     1
 AX will form     1 AO Fock derivatives at one time.
 LinEq1:  Iter=  1 NonCon=     1 RMS=1.05D-04 Max=1.08D-03 NDo=     1
 LinEq1:  Iter=  2 NonCon=     1 RMS=2.69D-05 Max=3.81D-04 NDo=     1
 LinEq1:  Iter=  3 NonCon=     1 RMS=5.75D-06 Max=3.84D-05 NDo=     1
 LinEq1:  Iter=  4 NonCon=     1 RMS=7.97D-07 Max=4.99D-06 NDo=     1
 LinEq1:  Iter=  5 NonCon=     1 RMS=1.60D-07 Max=1.89D-06 NDo=     1
 LinEq1:  Iter=  6 NonCon=     1 RMS=3.57D-08 Max=3.92D-07 NDo=     1
 LinEq1:  Iter=  7 NonCon=     1 RMS=8.47D-09 Max=8.60D-08 NDo=     1
 LinEq1:  Iter=  8 NonCon=     0 RMS=1.97D-09 Max=2.08D-08 NDo=     1
 Linear equations converged to 3.847D-09 3.847D-08 after     8 iterations.
 Angle between quadratic step and gradient=  50.31 degrees.
     ILin= 1 X=0.000D+00 Y=-9.852689046897D-02 DE= 0.00D+00 F= -8.19D-04
     ILin= 2 X=1.000D+00 Y=-9.892679841266D-02 DE=-4.00D-04 F=  2.95D-05
     Accept linear search using points  1 and  2.
     An  expanding polynomial of degree  2 produced  0.9664
     Minimum is close to point  2 DX= -3.36D-02 DF= -4.94D-07 DXR=  3.47D-02 DFR=  1.24D-03 which will be used.
 Iteration   7 EE=-0.989267984126627E-01 Delta-E=       -0.000399907944 Grad=3.505D-04 Max rot=    0.0073 deg.
 QCNR:  CnvC1=3.51D-09 CnvC2=3.51D-08
 LinEq1:  Iter=  0 NonCon=     1 RMS=1.96D-05 Max=3.38D-04 NDo=     1
 LinEq1:  Iter=  1 NonCon=     1 RMS=3.32D-06 Max=5.16D-05 NDo=     1
 LinEq1:  Iter=  2 NonCon=     1 RMS=6.31D-07 Max=6.70D-06 NDo=     1
 LinEq1:  Iter=  3 NonCon=     1 RMS=1.17D-07 Max=9.39D-07 NDo=     1
 LinEq1:  Iter=  4 NonCon=     1 RMS=2.09D-08 Max=1.80D-07 NDo=     1
 LinEq1:  Iter=  5 NonCon=     1 RMS=4.36D-09 Max=3.48D-08 NDo=     1
 LinEq1:  Iter=  6 NonCon=     0 RMS=1.04D-09 Max=1.10D-08 NDo=     1
 Linear equations converged to 3.505D-09 3.505D-08 after     6 iterations.
 Angle between quadratic step and gradient=  35.69 degrees.
     ILin= 1 X=0.000D+00 Y=-9.892679841266D-02 DE= 0.00D+00 F= -1.97D-06
     ILin= 2 X=1.000D+00 Y=-9.892778571935D-02 DE=-9.87D-07 F= -6.57D-09
     Reject lnstep minimum 1.003D+00 FVal=-9.892778573038D-02 Lims=  0.00D+00  1.00D+00
     ILin= 3 X=2.000D+00 Y=-9.892681622216D-02 DE=-1.78D-08 F=  1.94D-06
     An  expanding polynomial of degree  3 produced  1.0046
     Minimum is close to point  2 DX=  4.55D-03 DF= -2.03D-11 DXR=  4.53D-03 DFR=  2.05D-05 which will be used.
 Iteration   8 EE=-0.989277857193542E-01 Delta-E=       -0.000000987307 Grad=2.490D-06 Max rot=    0.0000 deg.
 QCNR:  CnvC1=2.49D-11 CnvC2=2.49D-10
 LinEq1:  Iter=  0 NonCon=     1 RMS=1.18D-07 Max=2.15D-06 NDo=     1
 LinEq1:  Iter=  1 NonCon=     1 RMS=3.59D-08 Max=2.71D-07 NDo=     1
 LinEq1:  Iter=  2 NonCon=     1 RMS=7.88D-09 Max=6.21D-08 NDo=     1
 LinEq1:  Iter=  3 NonCon=     1 RMS=1.77D-09 Max=2.05D-08 NDo=     1
 LinEq1:  Iter=  4 NonCon=     1 RMS=2.97D-10 Max=3.90D-09 NDo=     1
 LinEq1:  Iter=  5 NonCon=     1 RMS=6.90D-11 Max=1.13D-09 NDo=     1
 LinEq1:  Iter=  6 NonCon=     0 RMS=1.38D-11 Max=1.96D-10 NDo=     1
 Linear equations converged to 2.490D-11 2.490D-10 after     6 iterations.
 Angle between quadratic step and gradient=  49.28 degrees.
     ILin= 1 X=0.000D+00 Y=-9.892778571935D-02 DE= 0.00D+00 F= -5.43D-11
     ILin= 2 X=1.000D+00 Y=-9.892778574493D-02 DE=-2.56D-11
 Iteration   9 EE=-0.989277857449338E-01 Delta-E=       -0.000000000026 Grad=2.588D-08 Max rot=    0.0000 deg.
 Rotation gradient small -- convergence achieved.
 SCF Done:  E(UPM6) = -0.989277857449E-01 a.u. after    9 cycles
            Convg  =    0.2588D-07                    38 Fock formations.
              S**2 =  0.7975                  -V/T =  0.9974
 <Sx>= 0.0000 <Sy>= 0.0000 <Sz>= 0.5000 <S**2>= 0.7975 S= 0.5235
 <L.S>= 0.000000000000E+00
 Annihilation of the first spin contaminant:
 S**2 before annihilation     0.7975,   after     0.7506
 Leave Link  508 at Thu Feb 18 23:36:23 2021, MaxMem=    33554432 cpu:         0.1
 (Enter /apps/applications/gaussian/G09.D01/2/default/g09/l801.exe)
 Range of M.O.s used for correlation:     1    55
 NBasis=    55 NAE=    32 NBE=    31 NFC=     0 NFV=     0
 NROrb=     55 NOA=    32 NOB=    31 NVA=    23 NVB=    24
 Leave Link  801 at Thu Feb 18 23:36:23 2021, MaxMem=    33554432 cpu:         0.0
 (Enter /apps/applications/gaussian/G09.D01/2/default/g09/l1101.exe)
 Using compressed storage, NAtomX=    22.
 Will process     23 centers per pass.
 Leave Link 1101 at Thu Feb 18 23:36:23 2021, MaxMem=    33554432 cpu:         0.1
 (Enter /apps/applications/gaussian/G09.D01/2/default/g09/l1102.exe)
 Symmetrizing basis deriv contribution to polar:
 IMax=3 JMax=2 DiffMx= 0.00D+00
 Leave Link 1102 at Thu Feb 18 23:36:23 2021, MaxMem=    33554432 cpu:         0.0
 (Enter /apps/applications/gaussian/G09.D01/2/default/g09/l1110.exe)
 Forming Gx(P) for the SCF density, NAtomX=    22.
 Integral derivatives from FoFJK, PRISM(SPDF).
 Do as many integral derivatives as possible in FoFJK.
 G2DrvN: MDV=      33495261.
 G2DrvN: will do    23 centers at a time, making    1 passes.
 Calling FoFCou, ICntrl=  3107 FMM=F I1Cent=   0 AccDes= 0.00D+00.
 FoFJK:  IHMeth=40 ICntrl=    3107 DoSepK=F KAlg= 0 I1Cent=   0 FoldK=F
 IRaf=         0 NMat=   1 IRICut=       1 DoRegI=T DoRafI=F ISym2E= 0.
 FoFCou: FMM=F IPFlag=           0 FMFlag=      100000 FMFlg1=           0
         NFxFlg=           0 DoJE=F BraDBF=F KetDBF=F FulRan=T
         wScrn=  0.000000 ICntrl=    3107 IOpCl=  1 I1Cent=           0 NGrid=           0
         NMat0=    1 NMatS0=      1 NMatT0=    0 NMatD0=    1 NMtDS0=    0 NMtDT0=    0
 Symmetry not used in FoFCou.
 End of G2Drv F.D. properties file   721 does not exist.
 End of G2Drv F.D. properties file   722 does not exist.
 End of G2Drv F.D. properties file   788 does not exist.
 Leave Link 1110 at Thu Feb 18 23:36:23 2021, MaxMem=    33554432 cpu:         0.1
 (Enter /apps/applications/gaussian/G09.D01/2/default/g09/l1002.exe)
 Minotr:  UHF open shell wavefunction.
          IDoAtm=1111111111111111111111
          Direct CPHF calculation.
          Differentiating once with respect to electric field.
                with respect to dipole field.
          Differentiating once with respect to nuclear coordinates.
          Electric field/nuclear overlap derivatives assumed to be zero.
          Requested convergence is 1.0D-08 RMS, and 1.0D-07 maximum.
          NewPWx=T KeepS1=F KeepF1=F KeepIn=T MapXYZ=F SortEE=F KeepMc=T.
          MDV=      33495207 using IRadAn=       2.
 Keep J ints in memory in canonical form, NReq=889842.
 FoFCou: FMM=F IPFlag=           0 FMFlag=           0 FMFlg1=           0
         NFxFlg=           0 DoJE=F BraDBF=F KetDBF=F FulRan=T
         wScrn=  0.000000 ICntrl=     600 IOpCl=  2 I1Cent=           0 NGrid=           0
         NMat0=    1 NMatS0=    121 NMatT0=    0 NMatD0=    1 NMtDS0=    0 NMtDT0=    0
 Symmetry not used in FoFCou.
          Solving linear equations separately, MaxMat=       0.
          There are    69 degrees of freedom in the 1st order CPHF.  IDoFFX=5 NUNeed=    69.
 LinEq1:  Iter=  0 NonCon=    69 RMS=2.17D-01 Max=5.89D+00 NDo=    69
 AX will form    69 AO Fock derivatives at one time.
 LinEq1:  Iter=  1 NonCon=    69 RMS=4.63D-02 Max=8.88D-01 NDo=    69
 LinEq1:  Iter=  2 NonCon=    69 RMS=1.17D-02 Max=2.60D-01 NDo=    69
 LinEq1:  Iter=  3 NonCon=    69 RMS=2.47D-03 Max=2.53D-02 NDo=    69
 LinEq1:  Iter=  4 NonCon=    69 RMS=5.16D-04 Max=4.92D-03 NDo=    69
 LinEq1:  Iter=  5 NonCon=    69 RMS=9.66D-05 Max=1.12D-03 NDo=    69
 LinEq1:  Iter=  6 NonCon=    69 RMS=2.17D-05 Max=2.03D-04 NDo=    69
 LinEq1:  Iter=  7 NonCon=    65 RMS=4.91D-06 Max=6.05D-05 NDo=    69
 LinEq1:  Iter=  8 NonCon=    33 RMS=1.21D-06 Max=9.69D-06 NDo=    69
 LinEq1:  Iter=  9 NonCon=     7 RMS=2.35D-07 Max=2.73D-06 NDo=    69
 LinEq1:  Iter= 10 NonCon=     3 RMS=5.01D-08 Max=4.73D-07 NDo=    69
 LinEq1:  Iter= 11 NonCon=     0 RMS=8.97D-09 Max=9.44D-08 NDo=    69
 Linear equations converged to 1.000D-08 1.000D-07 after    11 iterations.
 FullF1:  Do perturbations    1 to     3.
 Isotropic polarizability for W=    0.000000       93.42 Bohr**3.
 End of Minotr F.D. properties file   721 does not exist.
 End of Minotr F.D. properties file   722 does not exist.
 End of Minotr F.D. properties file   788 does not exist.
 Leave Link 1002 at Thu Feb 18 23:36:24 2021, MaxMem=    33554432 cpu:         0.6
 (Enter /apps/applications/gaussian/G09.D01/2/default/g09/l601.exe)
 Copying SCF densities to generalized density rwf, IOpCl= 1 IROHF=0.

 **********************************************************************

            Population analysis using the SCF density.

 **********************************************************************

 Alpha  occ. eigenvalues --   -1.21205  -1.19101  -1.14389  -1.07755  -1.06295
 Alpha  occ. eigenvalues --   -1.01694  -0.95886  -0.89100  -0.81745  -0.75644
 Alpha  occ. eigenvalues --   -0.72355  -0.68327  -0.65618  -0.63788  -0.61195
 Alpha  occ. eigenvalues --   -0.60033  -0.58420  -0.57106  -0.56739  -0.55631
 Alpha  occ. eigenvalues --   -0.54633  -0.52942  -0.51041  -0.50561  -0.49161
 Alpha  occ. eigenvalues --   -0.47376  -0.46763  -0.45704  -0.40005  -0.39274
 Alpha  occ. eigenvalues --   -0.38275  -0.33829
 Alpha virt. eigenvalues --   -0.00360   0.00659   0.02139   0.08256   0.09604
 Alpha virt. eigenvalues --    0.10957   0.11681   0.12015   0.12391   0.13534
 Alpha virt. eigenvalues --    0.15015   0.15724   0.16579   0.17254   0.17640
 Alpha virt. eigenvalues --    0.17753   0.18142   0.18714   0.19203   0.20469
 Alpha virt. eigenvalues --    0.20761   0.21359   0.21487
  Beta  occ. eigenvalues --   -1.19225  -1.19077  -1.12010  -1.06858  -1.03050
  Beta  occ. eigenvalues --   -0.98992  -0.95276  -0.88572  -0.80846  -0.74403
  Beta  occ. eigenvalues --   -0.71604  -0.67148  -0.64471  -0.62623  -0.60259
  Beta  occ. eigenvalues --   -0.59372  -0.57931  -0.55945  -0.55376  -0.54130
  Beta  occ. eigenvalues --   -0.53917  -0.52196  -0.50842  -0.50486  -0.47722
  Beta  occ. eigenvalues --   -0.47078  -0.45367  -0.45152  -0.39209  -0.36425
  Beta  occ. eigenvalues --   -0.34319
  Beta virt. eigenvalues --   -0.04496  -0.00051   0.01474   0.03552   0.08317
  Beta virt. eigenvalues --    0.10376   0.11439   0.11859   0.12400   0.12567
  Beta virt. eigenvalues --    0.13644   0.15024   0.16815   0.17254   0.17445
  Beta virt. eigenvalues --    0.17718   0.17768   0.18240   0.18776   0.19384
  Beta virt. eigenvalues --    0.20472   0.20776   0.21465   0.21516
          Condensed to atoms (all electrons):
               1          2          3          4          5          6
     1  O    6.367922   0.000000   0.000000   0.000000   0.000000   0.000000
     2  C    0.000000   3.636265   0.000000   0.000000   0.000000   0.000000
     3  C    0.000000   0.000000   4.417800   0.000000   0.000000   0.000000
     4  C    0.000000   0.000000   0.000000   4.209939   0.000000   0.000000
     5  C    0.000000   0.000000   0.000000   0.000000   4.296649   0.000000
     6  C    0.000000   0.000000   0.000000   0.000000   0.000000   4.128777
     7  H    0.000000   0.000000   0.000000   0.000000   0.000000   0.000000
     8  C    0.000000   0.000000   0.000000   0.000000   0.000000   0.000000
     9  O    0.000000   0.000000   0.000000   0.000000   0.000000   0.000000
    10  C    0.000000   0.000000   0.000000   0.000000   0.000000   0.000000
    11  H    0.000000   0.000000   0.000000   0.000000   0.000000   0.000000
    12  H    0.000000   0.000000   0.000000   0.000000   0.000000   0.000000
    13  H    0.000000   0.000000   0.000000   0.000000   0.000000   0.000000
    14  H    0.000000   0.000000   0.000000   0.000000   0.000000   0.000000
    15  H    0.000000   0.000000   0.000000   0.000000   0.000000   0.000000
    16  H    0.000000   0.000000   0.000000   0.000000   0.000000   0.000000
    17  H    0.000000   0.000000   0.000000   0.000000   0.000000   0.000000
    18  H    0.000000   0.000000   0.000000   0.000000   0.000000   0.000000
    19  H    0.000000   0.000000   0.000000   0.000000   0.000000   0.000000
    20  H    0.000000   0.000000   0.000000   0.000000   0.000000   0.000000
    21  O    0.000000   0.000000   0.000000   0.000000   0.000000   0.000000
    22  O    0.000000   0.000000   0.000000   0.000000   0.000000   0.000000
               7          8          9         10         11         12
     1  O    0.000000   0.000000   0.000000   0.000000   0.000000   0.000000
     2  C    0.000000   0.000000   0.000000   0.000000   0.000000   0.000000
     3  C    0.000000   0.000000   0.000000   0.000000   0.000000   0.000000
     4  C    0.000000   0.000000   0.000000   0.000000   0.000000   0.000000
     5  C    0.000000   0.000000   0.000000   0.000000   0.000000   0.000000
     6  C    0.000000   0.000000   0.000000   0.000000   0.000000   0.000000
     7  H    0.844145   0.000000   0.000000   0.000000   0.000000   0.000000
     8  C    0.000000   3.436071   0.000000   0.000000   0.000000   0.000000
     9  O    0.000000   0.000000   6.458474   0.000000   0.000000   0.000000
    10  C    0.000000   0.000000   0.000000   4.641446   0.000000   0.000000
    11  H    0.000000   0.000000   0.000000   0.000000   0.805288   0.000000
    12  H    0.000000   0.000000   0.000000   0.000000   0.000000   0.781266
    13  H    0.000000   0.000000   0.000000   0.000000   0.000000   0.000000
    14  H    0.000000   0.000000   0.000000   0.000000   0.000000   0.000000
    15  H    0.000000   0.000000   0.000000   0.000000   0.000000   0.000000
    16  H    0.000000   0.000000   0.000000   0.000000   0.000000   0.000000
    17  H    0.000000   0.000000   0.000000   0.000000   0.000000   0.000000
    18  H    0.000000   0.000000   0.000000   0.000000   0.000000   0.000000
    19  H    0.000000   0.000000   0.000000   0.000000   0.000000   0.000000
    20  H    0.000000   0.000000   0.000000   0.000000   0.000000   0.000000
    21  O    0.000000   0.000000   0.000000   0.000000   0.000000   0.000000
    22  O    0.000000   0.000000   0.000000   0.000000   0.000000   0.000000
              13         14         15         16         17         18
     1  O    0.000000   0.000000   0.000000   0.000000   0.000000   0.000000
     2  C    0.000000   0.000000   0.000000   0.000000   0.000000   0.000000
     3  C    0.000000   0.000000   0.000000   0.000000   0.000000   0.000000
     4  C    0.000000   0.000000   0.000000   0.000000   0.000000   0.000000
     5  C    0.000000   0.000000   0.000000   0.000000   0.000000   0.000000
     6  C    0.000000   0.000000   0.000000   0.000000   0.000000   0.000000
     7  H    0.000000   0.000000   0.000000   0.000000   0.000000   0.000000
     8  C    0.000000   0.000000   0.000000   0.000000   0.000000   0.000000
     9  O    0.000000   0.000000   0.000000   0.000000   0.000000   0.000000
    10  C    0.000000   0.000000   0.000000   0.000000   0.000000   0.000000
    11  H    0.000000   0.000000   0.000000   0.000000   0.000000   0.000000
    12  H    0.000000   0.000000   0.000000   0.000000   0.000000   0.000000
    13  H    0.821479   0.000000   0.000000   0.000000   0.000000   0.000000
    14  H    0.000000   0.856001   0.000000   0.000000   0.000000   0.000000
    15  H    0.000000   0.000000   0.860685   0.000000   0.000000   0.000000
    16  H    0.000000   0.000000   0.000000   0.853501   0.000000   0.000000
    17  H    0.000000   0.000000   0.000000   0.000000   0.829722   0.000000
    18  H    0.000000   0.000000   0.000000   0.000000   0.000000   0.809258
    19  H    0.000000   0.000000   0.000000   0.000000   0.000000   0.000000
    20  H    0.000000   0.000000   0.000000   0.000000   0.000000   0.000000
    21  O    0.000000   0.000000   0.000000   0.000000   0.000000   0.000000
    22  O    0.000000   0.000000   0.000000   0.000000   0.000000   0.000000
              19         20         21         22
     1  O    0.000000   0.000000   0.000000   0.000000
     2  C    0.000000   0.000000   0.000000   0.000000
     3  C    0.000000   0.000000   0.000000   0.000000
     4  C    0.000000   0.000000   0.000000   0.000000
     5  C    0.000000   0.000000   0.000000   0.000000
     6  C    0.000000   0.000000   0.000000   0.000000
     7  H    0.000000   0.000000   0.000000   0.000000
     8  C    0.000000   0.000000   0.000000   0.000000
     9  O    0.000000   0.000000   0.000000   0.000000
    10  C    0.000000   0.000000   0.000000   0.000000
    11  H    0.000000   0.000000   0.000000   0.000000
    12  H    0.000000   0.000000   0.000000   0.000000
    13  H    0.000000   0.000000   0.000000   0.000000
    14  H    0.000000   0.000000   0.000000   0.000000
    15  H    0.000000   0.000000   0.000000   0.000000
    16  H    0.000000   0.000000   0.000000   0.000000
    17  H    0.000000   0.000000   0.000000   0.000000
    18  H    0.000000   0.000000   0.000000   0.000000
    19  H    0.800227   0.000000   0.000000   0.000000
    20  H    0.000000   0.797387   0.000000   0.000000
    21  O    0.000000   0.000000   6.273355   0.000000
    22  O    0.000000   0.000000   0.000000   6.074344
          Atomic-Atomic Spin Densities.
               1          2          3          4          5          6
     1  O    0.186414   0.000000   0.000000   0.000000   0.000000   0.000000
     2  C    0.000000   0.277767   0.000000   0.000000   0.000000   0.000000
     3  C    0.000000   0.000000   0.064369   0.000000   0.000000   0.000000
     4  C    0.000000   0.000000   0.000000  -0.004143   0.000000   0.000000
     5  C    0.000000   0.000000   0.000000   0.000000   0.005553   0.000000
     6  C    0.000000   0.000000   0.000000   0.000000   0.000000  -0.033806
     7  H    0.000000   0.000000   0.000000   0.000000   0.000000   0.000000
     8  C    0.000000   0.000000   0.000000   0.000000   0.000000   0.000000
     9  O    0.000000   0.000000   0.000000   0.000000   0.000000   0.000000
    10  C    0.000000   0.000000   0.000000   0.000000   0.000000   0.000000
    11  H    0.000000   0.000000   0.000000   0.000000   0.000000   0.000000
    12  H    0.000000   0.000000   0.000000   0.000000   0.000000   0.000000
    13  H    0.000000   0.000000   0.000000   0.000000   0.000000   0.000000
    14  H    0.000000   0.000000   0.000000   0.000000   0.000000   0.000000
    15  H    0.000000   0.000000   0.000000   0.000000   0.000000   0.000000
    16  H    0.000000   0.000000   0.000000   0.000000   0.000000   0.000000
    17  H    0.000000   0.000000   0.000000   0.000000   0.000000   0.000000
    18  H    0.000000   0.000000   0.000000   0.000000   0.000000   0.000000
    19  H    0.000000   0.000000   0.000000   0.000000   0.000000   0.000000
    20  H    0.000000   0.000000   0.000000   0.000000   0.000000   0.000000
    21  O    0.000000   0.000000   0.000000   0.000000   0.000000   0.000000
    22  O    0.000000   0.000000   0.000000   0.000000   0.000000   0.000000
               7          8          9         10         11         12
     1  O    0.000000   0.000000   0.000000   0.000000   0.000000   0.000000
     2  C    0.000000   0.000000   0.000000   0.000000   0.000000   0.000000
     3  C    0.000000   0.000000   0.000000   0.000000   0.000000   0.000000
     4  C    0.000000   0.000000   0.000000   0.000000   0.000000   0.000000
     5  C    0.000000   0.000000   0.000000   0.000000   0.000000   0.000000
     6  C    0.000000   0.000000   0.000000   0.000000   0.000000   0.000000
     7  H    0.004175   0.000000   0.000000   0.000000   0.000000   0.000000
     8  C    0.000000  -0.001090   0.000000   0.000000   0.000000   0.000000
     9  O    0.000000   0.000000  -0.001018   0.000000   0.000000   0.000000
    10  C    0.000000   0.000000   0.000000  -0.002099   0.000000   0.000000
    11  H    0.000000   0.000000   0.000000   0.000000  -0.136138   0.000000
    12  H    0.000000   0.000000   0.000000   0.000000   0.000000  -0.002281
    13  H    0.000000   0.000000   0.000000   0.000000   0.000000   0.000000
    14  H    0.000000   0.000000   0.000000   0.000000   0.000000   0.000000
    15  H    0.000000   0.000000   0.000000   0.000000   0.000000   0.000000
    16  H    0.000000   0.000000   0.000000   0.000000   0.000000   0.000000
    17  H    0.000000   0.000000   0.000000   0.000000   0.000000   0.000000
    18  H    0.000000   0.000000   0.000000   0.000000   0.000000   0.000000
    19  H    0.000000   0.000000   0.000000   0.000000   0.000000   0.000000
    20  H    0.000000   0.000000   0.000000   0.000000   0.000000   0.000000
    21  O    0.000000   0.000000   0.000000   0.000000   0.000000   0.000000
    22  O    0.000000   0.000000   0.000000   0.000000   0.000000   0.000000
              13         14         15         16         17         18
     1  O    0.000000   0.000000   0.000000   0.000000   0.000000   0.000000
     2  C    0.000000   0.000000   0.000000   0.000000   0.000000   0.000000
     3  C    0.000000   0.000000   0.000000   0.000000   0.000000   0.000000
     4  C    0.000000   0.000000   0.000000   0.000000   0.000000   0.000000
     5  C    0.000000   0.000000   0.000000   0.000000   0.000000   0.000000
     6  C    0.000000   0.000000   0.000000   0.000000   0.000000   0.000000
     7  H    0.000000   0.000000   0.000000   0.000000   0.000000   0.000000
     8  C    0.000000   0.000000   0.000000   0.000000   0.000000   0.000000
     9  O    0.000000   0.000000   0.000000   0.000000   0.000000   0.000000
    10  C    0.000000   0.000000   0.000000   0.000000   0.000000   0.000000
    11  H    0.000000   0.000000   0.000000   0.000000   0.000000   0.000000
    12  H    0.000000   0.000000   0.000000   0.000000   0.000000   0.000000
    13  H    0.010156   0.000000   0.000000   0.000000   0.000000   0.000000
    14  H    0.000000   0.000977   0.000000   0.000000   0.000000   0.000000
    15  H    0.000000   0.000000   0.000193   0.000000   0.000000   0.000000
    16  H    0.000000   0.000000   0.000000  -0.000855   0.000000   0.000000
    17  H    0.000000   0.000000   0.000000   0.000000  -0.000292   0.000000
    18  H    0.000000   0.000000   0.000000   0.000000   0.000000   0.000071
    19  H    0.000000   0.000000   0.000000   0.000000   0.000000   0.000000
    20  H    0.000000   0.000000   0.000000   0.000000   0.000000   0.000000
    21  O    0.000000   0.000000   0.000000   0.000000   0.000000   0.000000
    22  O    0.000000   0.000000   0.000000   0.000000   0.000000   0.000000
              19         20         21         22
     1  O    0.000000   0.000000   0.000000   0.000000
     2  C    0.000000   0.000000   0.000000   0.000000
     3  C    0.000000   0.000000   0.000000   0.000000
     4  C    0.000000   0.000000   0.000000   0.000000
     5  C    0.000000   0.000000   0.000000   0.000000
     6  C    0.000000   0.000000   0.000000   0.000000
     7  H    0.000000   0.000000   0.000000   0.000000
     8  C    0.000000   0.000000   0.000000   0.000000
     9  O    0.000000   0.000000   0.000000   0.000000
    10  C    0.000000   0.000000   0.000000   0.000000
    11  H    0.000000   0.000000   0.000000   0.000000
    12  H    0.000000   0.000000   0.000000   0.000000
    13  H    0.000000   0.000000   0.000000   0.000000
    14  H    0.000000   0.000000   0.000000   0.000000
    15  H    0.000000   0.000000   0.000000   0.000000
    16  H    0.000000   0.000000   0.000000   0.000000
    17  H    0.000000   0.000000   0.000000   0.000000
    18  H    0.000000   0.000000   0.000000   0.000000
    19  H    0.000058   0.000000   0.000000   0.000000
    20  H    0.000000  -0.000008   0.000000   0.000000
    21  O    0.000000   0.000000   0.508896   0.000000
    22  O    0.000000   0.000000   0.000000   0.123102
 Mulliken charges and spin densities:
               1          2
     1  O   -0.367922   0.186414
     2  C    0.363735   0.277767
     3  C   -0.417800   0.064369
     4  C   -0.209939  -0.004143
     5  C   -0.296649   0.005553
     6  C   -0.128777  -0.033806
     7  H    0.155855   0.004175
     8  C    0.563929  -0.001090
     9  O   -0.458474  -0.001018
    10  C   -0.641446  -0.002099
    11  H    0.194712  -0.136138
    12  H    0.218734  -0.002281
    13  H    0.178521   0.010156
    14  H    0.143999   0.000977
    15  H    0.139315   0.000193
    16  H    0.146499  -0.000855
    17  H    0.170278  -0.000292
    18  H    0.190742   0.000071
    19  H    0.199773   0.000058
    20  H    0.202613  -0.000008
    21  O   -0.273355   0.508896
    22  O   -0.074344   0.123102
 Sum of Mulliken charges =   0.00000   1.00000
 Mulliken charges and spin densities with hydrogens summed into heavy atoms:
               1          2
     1  O   -0.367922   0.186414
     2  C    0.363735   0.277767
     3  C   -0.020545   0.072244
     4  C    0.073375  -0.002973
     5  C    0.020128   0.004406
     6  C    0.027078  -0.029630
     8  C    0.563929  -0.001090
     9  O   -0.458474  -0.001018
    10  C   -0.048319  -0.001978
    21  O   -0.078642   0.372758
    22  O   -0.074344   0.123102
 APT charges:
               1
     1  O   -1.022052
     2  C    1.788739
     3  C   -0.670652
     4  C   -0.147372
     5  C   -0.303614
     6  C   -0.200176
     7  H    0.121585
     8  C    1.188834
     9  O   -0.715531
    10  C   -1.020573
    11  H   -1.095998
    12  H    0.182802
    13  H    0.205693
    14  H    0.128790
    15  H    0.128042
    16  H    0.152140
    17  H    0.150196
    18  H    0.237447
    19  H    0.256785
    20  H    0.241366
    21  O    0.693466
    22  O   -0.299743
 Sum of APT charges =   0.00018
 APT charges with hydrogens summed into heavy atoms:
               1
     1  O   -1.022052
     2  C    1.788739
     3  C   -0.282157
     4  C    0.109460
     5  C   -0.001277
     6  C   -0.078591
     8  C    1.188834
     9  O   -0.715531
    10  C   -0.284974
    21  O   -0.402532
    22  O   -0.299743
 Charge=              0.0000 electrons
 Dipole moment (field-independent basis, Debye):
    X=              4.0576    Y=              0.2711    Z=             -3.5400  Tot=              5.3916
 N-N= 4.027036973290D+02 E-N=-7.251464401007D+02  KE=-3.754411905827D+01
  Exact polarizability:  58.214 -15.484 112.423 -11.620  40.427 109.631
 Approx polarizability:  44.348  -9.230  61.074  -4.163  14.783  68.240
 Leave Link  601 at Thu Feb 18 23:36:24 2021, MaxMem=    33554432 cpu:         0.0
 (Enter /apps/applications/gaussian/G09.D01/2/default/g09/l701.exe)
 Compute integral second derivatives.
 ... and contract with generalized density number  0.
 Leave Link  701 at Thu Feb 18 23:36:24 2021, MaxMem=    33554432 cpu:         0.1
 (Enter /apps/applications/gaussian/G09.D01/2/default/g09/l702.exe)
 L702 exits ... SP integral derivatives will be done elsewhere.
 Leave Link  702 at Thu Feb 18 23:36:24 2021, MaxMem=    33554432 cpu:         0.0
 (Enter /apps/applications/gaussian/G09.D01/2/default/g09/l703.exe)
 Compute integral second derivatives, UseDBF=F ICtDFT=           0.
 Integral derivatives from FoFJK, PRISM(SPDF).
 Calling FoFJK, ICntrl=    100127 FMM=F ISym2X=0 I1Cent= 0 IOpClX= 1 NMat=1 NMatS=1 NMatT=0.
 FoFJK:  IHMeth=40 ICntrl=  100127 DoSepK=F KAlg= 0 I1Cent=   0 FoldK=F
 IRaf=         0 NMat=   1 IRICut=       1 DoRegI=T DoRafI=F ISym2E= 0.
 FoFCou: FMM=F IPFlag=           0 FMFlag=      100000 FMFlg1=         800
         NFxFlg=           0 DoJE=F BraDBF=F KetDBF=F FulRan=T
         wScrn=  0.000000 ICntrl=  100127 IOpCl=  1 I1Cent=           0 NGrid=           0
         NMat0=    1 NMatS0=      1 NMatT0=    0 NMatD0=    1 NMtDS0=    0 NMtDT0=    0
 Symmetry not used in FoFCou.
 Leave Link  703 at Thu Feb 18 23:36:24 2021, MaxMem=    33554432 cpu:         0.1
 (Enter /apps/applications/gaussian/G09.D01/2/default/g09/l716.exe)
 Dipole        = 1.59638971D+00 1.06650050D-01-1.39274405D+00
 Polarizability= 5.82138082D+01-1.54835752D+01 1.12423118D+02
                -1.16202977D+01 4.04269266D+01 1.09631351D+02
 HyperPolar    = 5.31513801D+01-5.60927970D+01 2.04125624D+02
                -6.73310471D+02-3.14996683D+01 9.69225677D+01
                -1.84504589D+02 7.84139411D+01 1.57637108D+02
                 2.78335633D+02
 -------------------------------------------------------------------
 Center     Atomic                   Forces (Hartrees/Bohr)
 Number     Number              X              Y              Z
 -------------------------------------------------------------------
      1        8          -0.000000234    0.000000560    0.000001028
      2        6           0.000000179   -0.000000098   -0.000001042
      3        6           0.000000046   -0.000000106    0.000000432
      4        6           0.000000125    0.000000510   -0.000000014
      5        6          -0.000000045   -0.000000567   -0.000000203
      6        6           0.000000537    0.000000076    0.000000164
      7        1           0.000000133   -0.000000205    0.000000015
      8        6          -0.000000631    0.000000305   -0.000000215
      9        8          -0.000000072    0.000000004    0.000000062
     10        6           0.000000544   -0.000000049   -0.000000580
     11        1           0.000000031   -0.000000258   -0.000000005
     12        1          -0.000000243   -0.000000163   -0.000000233
     13        1          -0.000000119    0.000000190    0.000000029
     14        1           0.000000001    0.000000061   -0.000000104
     15        1          -0.000000019    0.000000081   -0.000000002
     16        1           0.000000335    0.000000075   -0.000000149
     17        1           0.000000085   -0.000000033    0.000000424
     18        1          -0.000000082   -0.000000071    0.000000023
     19        1           0.000000003   -0.000000051    0.000000002
     20        1          -0.000000051   -0.000000014    0.000000025
     21        8           0.000000057   -0.000000037    0.000000022
     22        8          -0.000000583   -0.000000210    0.000000320
 -------------------------------------------------------------------
 Cartesian Forces:  Max     0.000001042 RMS     0.000000303
 Leave Link  716 at Thu Feb 18 23:36:24 2021, MaxMem=    33554432 cpu:         0.0
 (Enter /apps/applications/gaussian/G09.D01/2/default/g09/l103.exe)

 GradGradGradGradGradGradGradGradGradGradGradGradGradGradGradGradGradGrad
 Berny optimization.
 Search for a saddle point.
 Step number   1 out of a maximum of  100
 All quantities printed in internal units (Hartrees-Bohrs-Radians)
 Swapping is turned off.
 Second derivative matrix not updated -- analytic derivatives used.
 ITU=  0
     Eigenvalues ---   -0.56036   0.00021   0.00031   0.00065   0.00202
     Eigenvalues ---    0.00297   0.00479   0.00788   0.00943   0.01142
     Eigenvalues ---    0.01519   0.02371   0.02536   0.03546   0.03907
     Eigenvalues ---    0.04118   0.04250   0.04725   0.04876   0.05125
     Eigenvalues ---    0.05340   0.05539   0.05779   0.05892   0.06844
     Eigenvalues ---    0.07192   0.07859   0.08323   0.08834   0.09689
     Eigenvalues ---    0.11005   0.11828   0.12375   0.13578   0.13823
     Eigenvalues ---    0.16490   0.18815   0.20765   0.21664   0.25554
     Eigenvalues ---    0.27140   0.33876   0.37612   0.44414   0.46356
     Eigenvalues ---    0.50940   0.54682   0.56274   0.56938   0.58825
     Eigenvalues ---    0.60204   0.60776   0.61437   0.62805   0.66473
     Eigenvalues ---    0.68202   0.70631   0.73171   1.66742   1.80733
 Eigenvectors required to have negative eigenvalues:
                          Y11       Y2        Z21       Y21       Z22
   1                    0.73641  -0.35647  -0.35067  -0.24219   0.22947
                          Z11       Y1        X11       Z1        Y12
   1                    0.21918   0.12895  -0.10722  -0.05354   0.04457
 RFO step:  Lambda0=2.231548279D-14 Lambda= 0.00000000D+00.
 Linear search not attempted -- option 19 set.
 TrRot= -0.000002 -0.000001  0.000001  0.000001  0.000000  0.000001
 Variable       Old X    -DE/DX   Delta X   Delta X   Delta X     New X
                                 (Linear)    (Quad)   (Total)
    X1       -2.11567   0.00000   0.00000  -0.00005  -0.00006  -2.11573
    Y1        2.95275   0.00000   0.00000   0.00000   0.00000   2.95275
    Z1        6.44687   0.00000   0.00000  -0.00001  -0.00001   6.44686
    X2       -1.88433   0.00000   0.00000  -0.00001  -0.00001  -1.88435
    Y2        1.85832   0.00000   0.00000   0.00001   0.00000   1.85833
    Z2        4.50223   0.00000   0.00000  -0.00001  -0.00001   4.50222
    X3       -1.86842   0.00000   0.00000   0.00001   0.00001  -1.86841
    Y3        2.74320   0.00000   0.00000   0.00000   0.00000   2.74320
    Z3        1.83067   0.00000   0.00000  -0.00001  -0.00001   1.83067
    X4        0.79357   0.00000   0.00000   0.00001   0.00001   0.79358
    Y4        2.67326   0.00000   0.00000   0.00000   0.00000   2.67326
    Z4        0.68931   0.00000   0.00000   0.00000   0.00000   0.68931
    X5        2.06719   0.00000   0.00000   0.00001   0.00001   2.06719
    Y5        0.07059   0.00000   0.00000  -0.00001  -0.00001   0.07058
    Z5        0.79627   0.00000   0.00000   0.00000   0.00000   0.79627
    X6        0.55239   0.00000   0.00000   0.00000   0.00000   0.55240
    Y6       -2.11082   0.00000   0.00000  -0.00001  -0.00001  -2.11083
    Z6       -0.32933   0.00000   0.00000   0.00000   0.00000  -0.32933
    X7        1.71173   0.00000   0.00000   0.00000   0.00000   1.71173
    Y7       -3.85943   0.00000   0.00000  -0.00001  -0.00001  -3.85944
    Z7       -0.39620   0.00000   0.00000  -0.00001  -0.00001  -0.39621
    X8       -0.61102   0.00000   0.00000  -0.00001  -0.00001  -0.61103
    Y8       -1.47339   0.00000   0.00000   0.00000   0.00000  -1.47339
    Z8       -2.90317   0.00000   0.00000   0.00000   0.00001  -2.90317
    X9       -2.64216   0.00000   0.00000  -0.00001  -0.00001  -2.64218
    Y9       -0.45572   0.00000   0.00000  -0.00001  -0.00001  -0.45573
    Z9       -3.10879   0.00000   0.00000   0.00001   0.00001  -3.10877
   X10        0.98008   0.00000   0.00000  -0.00001  -0.00001   0.98008
   Y10       -2.20689   0.00000   0.00000   0.00001   0.00001  -2.20688
   Z10       -5.12933   0.00000   0.00000   0.00000   0.00000  -5.12934
   X11       -1.60088   0.00000   0.00000   0.00002   0.00002  -1.60086
   Y11       -0.63014   0.00000   0.00000   0.00001   0.00001  -0.63013
   Z11        4.58040   0.00000   0.00000   0.00000   0.00000   4.58040
   X12       -3.14966   0.00000   0.00000   0.00001   0.00001  -3.14966
   Y12        1.50248   0.00000   0.00000   0.00001   0.00000   1.50248
   Z12        0.67407   0.00000   0.00000  -0.00001  -0.00001   0.67406
   X13       -2.67079   0.00000   0.00000   0.00002   0.00001  -2.67078
   Y13        4.67657   0.00000   0.00000   0.00001   0.00000   4.67658
   Z13        1.69245   0.00000   0.00000  -0.00001  -0.00001   1.69244
   X14        0.66539   0.00000   0.00000   0.00002   0.00002   0.66541
   Y14        3.32475   0.00000   0.00000   0.00000   0.00000   3.32475
   Z14       -1.30141   0.00000   0.00000   0.00000   0.00000  -1.30141
   X15        2.01685   0.00000   0.00000   0.00002   0.00001   2.01686
   Y15        4.06834   0.00000   0.00000  -0.00001  -0.00001   4.06833
   Z15        1.66703   0.00000   0.00000   0.00001   0.00001   1.66704
   X16        3.93441   0.00000   0.00000   0.00001   0.00001   3.93442
   Y16        0.18019   0.00000   0.00000  -0.00001  -0.00001   0.18019
   Z16       -0.14787   0.00000   0.00000   0.00000   0.00000  -0.14787
   X17        2.48224   0.00000   0.00000   0.00001   0.00000   2.48225
   Y17       -0.43106   0.00000   0.00000  -0.00001  -0.00001  -0.43107
   Z17        2.80140   0.00000   0.00000   0.00000   0.00000   2.80141
   X18        2.95542   0.00000   0.00000  -0.00001  -0.00001   2.95541
   Y18       -1.60953   0.00000   0.00000   0.00000   0.00001  -1.60953
   Z18       -4.93738   0.00000   0.00000   0.00000   0.00000  -4.93738
   X19        0.97990   0.00000   0.00000  -0.00002  -0.00001   0.97988
   Y19       -4.26714   0.00000   0.00000   0.00001   0.00001  -4.26712
   Z19       -5.40903   0.00000   0.00000  -0.00002  -0.00002  -5.40904
   X20        0.23993   0.00000   0.00000  -0.00001  -0.00001   0.23992
   Y20       -1.37165   0.00000   0.00000   0.00003   0.00002  -1.37163
   Z20       -6.88728   0.00000   0.00000   0.00000   0.00000  -6.88727
   X21       -1.13774   0.00000   0.00000   0.00002   0.00002  -1.13772
   Y21       -2.86926   0.00000   0.00000   0.00000   0.00000  -2.86926
   Z21        3.63303   0.00000   0.00000   0.00001   0.00001   3.63304
   X22       -1.69844   0.00000   0.00000   0.00001   0.00001  -1.69843
   Y22       -2.76543   0.00000   0.00000  -0.00001  -0.00001  -2.76544
   Z22        1.23607   0.00000   0.00000   0.00001   0.00001   1.23608
         Item               Value     Threshold  Converged?
 Maximum Force            0.000001     0.000450     YES
 RMS     Force            0.000000     0.000300     YES
 Maximum Displacement     0.000060     0.001800     YES
 RMS     Displacement     0.000012     0.001200     YES
 Predicted change in Energy=-8.873537D-12
 Optimization completed.
    -- Stationary point found.
 Lowest energy point so far.  Saving SCF results.
 GradGradGradGradGradGradGradGradGradGradGradGradGradGradGradGradGradGrad

 Largest change from initial coordinates is atom    0       0.000 Angstoms.
 Leave Link  103 at Thu Feb 18 23:36:24 2021, MaxMem=    33554432 cpu:         0.0
 (Enter /apps/applications/gaussian/G09.D01/2/default/g09/l202.exe)
                          Input orientation:                          
 ---------------------------------------------------------------------
 Center     Atomic      Atomic             Coordinates (Angstroms)
 Number     Number       Type             X           Y           Z
 ---------------------------------------------------------------------
      1          8           0       -1.119563    1.562528    3.411539
      2          6           0       -0.997146    0.983383    2.382476
      3          6           0       -0.988723    1.451641    0.968750
      4          6           0        0.419940    1.414628    0.364765
      5          6           0        1.093909    0.037353    0.421368
      6          6           0        0.292313   -1.117000   -0.174275
      7          1           0        0.905808   -2.042322   -0.209661
      8          6           0       -0.323339   -0.779685   -1.536294
      9          8           0       -1.398172   -0.241157   -1.645100
     10          6           0        0.518638   -1.167835   -2.714326
     11          1           0       -0.847149   -0.333454    2.423843
     12          1           0       -1.666730    0.795076    0.356704
     13          1           0       -1.413320    2.474736    0.895607
     14          1           0        0.352109    1.759384   -0.688679
     15          1           0        1.067271    2.152874    0.882154
     16          1           0        2.082001    0.095354   -0.078252
     17          1           0        1.313547   -0.228107    1.482438
     18          1           0        1.563942   -0.851728   -2.612751
     19          1           0        0.518539   -2.258071   -2.862334
     20          1           0        0.126966   -0.725847   -3.644589
     21          8           0       -0.602065   -1.518349    1.922517
     22          8           0       -0.898774   -1.463402    0.654100
 ---------------------------------------------------------------------
                    Distance matrix (angstroms):
                    1          2          3          4          5
     1  O    0.000000
     2  C    1.187167   0.000000
     3  C    2.448802   1.489281   0.000000
     4  C    3.416837   2.503051   1.533134   0.000000
     5  C    4.020788   3.018846   2.576275   1.534381   0.000000
     6  C    4.693754   3.551238   3.089575   2.591523   1.526394
     7  H    5.496377   4.415348   4.145561   3.537872   2.181428
     8  C    5.531816   4.349619   3.420058   2.996915   2.551193
     9  O    5.375919   4.228675   3.140927   3.175959   3.249358
    10  C    6.903970   5.736090   4.764330   4.019908   3.408224
    11  H    2.155110   1.325998   2.307358   2.983472   2.813381
    12  H    3.196935   2.141858   1.124887   2.176718   2.863469
    13  H    2.692272   2.146652   1.110115   2.183223   3.528730
    14  H    4.360775   3.443060   2.153975   1.110496   2.178959
    15  H    3.395370   2.807222   2.174014   1.109836   2.165286
    16  H    4.957948   4.040411   3.516401   2.167763   1.108743
    17  H    3.584387   2.759906   2.895838   2.178602   1.115607
    18  H    7.022955   5.905853   4.964751   3.912890   3.196447
    19  H    7.526077   6.349201   5.541751   4.890052   4.047557
    20  H    7.521930   6.364794   5.221984   4.554381   4.248466
    21  O    3.460750   2.574163   3.143249   3.474686   2.747724
    22  O    4.099813   2.997285   2.933355   3.178959   2.505437
                    6          7          8          9         10
     6  C    0.000000
     7  H    1.110788   0.000000
     8  C    1.532287   2.205677   0.000000
     9  O    2.405861   3.257761   1.207111   0.000000
    10  C    2.550621   2.681040   1.499115   2.382464   0.000000
    11  H    2.943218   3.595613   4.019476   4.107121   5.381668
    12  H    2.788516   3.871634   2.804998   2.270049   4.249715
    13  H    4.117572   5.196517   4.206359   3.719072   5.480183
    14  H    2.922631   3.871564   2.760716   2.824958   3.563648
    15  H    3.522595   4.337949   4.047541   4.265771   4.925726
    16  H    2.163794   2.443431   2.945716   3.831430   3.314911
    17  H    2.139567   2.514125   3.477985   4.139455   4.373534
    18  H    2.762892   2.761430   2.173886   3.175416   1.096769
    19  H    2.928973   2.689461   2.157027   3.037002   1.100237
    20  H    3.496201   3.760111   2.156521   2.561040   1.101885
    21  O    2.314634   2.663534   3.547772   3.872066   4.783215
    22  O    1.491606   2.082726   2.365675   2.651340   3.666430
                   11         12         13         14         15
    11  H    0.000000
    12  H    2.493663   0.000000
    13  H    3.246842   1.782103   0.000000
    14  H    3.937764   2.469499   2.477586   0.000000
    15  H    3.496232   3.097495   2.501421   1.770256   0.000000
    16  H    3.876116   3.838200   4.339024   2.476720   2.487056
    17  H    2.359226   3.346077   3.884010   3.096487   2.467805
    18  H    5.607963   4.686883   5.677854   3.462441   4.635588
    19  H    5.789035   4.945636   6.344577   4.570823   5.811947
    20  H    6.158631   4.641217   5.764511   3.868393   5.446339
    21  O    1.309721   2.989518   4.202072   4.297944   4.164963
    22  O    2.100342   2.403939   3.978946   3.708654   4.122474
                   16         17         18         19         20
    16  H    0.000000
    17  H    1.769435   0.000000
    18  H    2.754820   4.149961   0.000000
    19  H    3.966628   4.861053   1.770017   0.000000
    20  H    4.149132   5.286031   1.773538   1.764359   0.000000
    21  O    3.716359   2.351162   5.069973   4.969682   5.670292
    22  O    3.442540   2.665795   4.136597   3.873704   4.480497
                   21         22
    21  O    0.000000
    22  O    1.303816   0.000000
 Symmetry turned off by external request.
 Stoichiometry    C7H11O4(2)
 Framework group  C1[X(C7H11O4)]
 Deg. of freedom    60
 Full point group                 C1      NOp   1
 Rotational constants (GHZ):      1.9525498      0.7330953      0.6644958
 Leave Link  202 at Thu Feb 18 23:36:25 2021, MaxMem=    33554432 cpu:         0.0
 (Enter /apps/applications/gaussian/G09.D01/2/default/g09/l716.exe)
 Dipole        = 1.59638971D+00 1.06650050D-01-1.39274405D+00
 Polarizability= 5.82138082D+01-1.54835752D+01 1.12423118D+02
                -1.16202977D+01 4.04269266D+01 1.09631351D+02
 HyperPolar    = 5.31513801D+01-5.60927970D+01 2.04125624D+02
                -6.73310471D+02-3.14996683D+01 9.69225677D+01
                -1.84504589D+02 7.84139411D+01 1.57637108D+02
                 2.78335633D+02
 Full mass-weighted force constant matrix:
 Low frequencies ----2660.2122   -1.4967   -0.3800   -0.1887    1.2546    1.8530
 Low frequencies ---    2.3016   35.3842   46.4553
 ******    1 imaginary frequencies (negative Signs) ****** 
 Diagonal vibrational polarizability:
       74.3053492     109.9466387      53.8680658
 Harmonic frequencies (cm**-1), IR intensities (KM/Mole), Raman scattering
 activities (A**4/AMU), depolarization ratios for plane and unpolarized
 incident light, reduced masses (AMU), force constants (mDyne/A),
 and normal coordinates:
                      1                      2                      3
                      A                      A                      A
 Frequencies --  -2660.2122                35.3842                46.4552
 Red. masses --      1.1572                 3.8491                 6.3006
 Frc consts  --      4.8248                 0.0028                 0.0080
 IR Inten    --  15608.6053                 4.0102                 1.6933
  Atom  AN      X      Y      Z        X      Y      Z        X      Y      Z
     1   8     0.00   0.02   0.01     0.02  -0.06   0.07     0.38   0.01   0.09
     2   6     0.01  -0.07   0.00    -0.01  -0.03   0.05     0.05  -0.02   0.07
     3   6     0.00   0.01   0.00    -0.07  -0.01   0.06    -0.13  -0.03   0.06
     4   6     0.00   0.00   0.00    -0.09   0.06   0.01    -0.17   0.04  -0.04
     5   6     0.00   0.00   0.00    -0.02   0.10  -0.02    -0.10   0.08   0.00
     6   6     0.01   0.00  -0.01     0.03   0.06  -0.01    -0.05   0.03   0.03
     7   1     0.00   0.00   0.00     0.06   0.08   0.04    -0.04   0.03   0.13
     8   6     0.00   0.00   0.00     0.04   0.00  -0.03     0.06  -0.05  -0.04
     9   8     0.00   0.00   0.00     0.14   0.20  -0.06     0.01  -0.16  -0.14
    10   6     0.00   0.00   0.00    -0.08  -0.33  -0.01     0.22   0.04   0.06
    11   1    -0.14   0.95   0.27     0.03  -0.03   0.02    -0.14  -0.04   0.04
    12   1     0.00   0.03   0.01    -0.06  -0.02   0.06    -0.13  -0.09   0.12
    13   1     0.01   0.00  -0.01    -0.12  -0.02   0.09    -0.20  -0.06   0.08
    14   1     0.00   0.00   0.00    -0.15   0.06   0.01    -0.27  -0.03  -0.05
    15   1     0.00   0.00   0.00    -0.11   0.09  -0.01    -0.19   0.11  -0.12
    16   1     0.00   0.00   0.00    -0.04   0.15  -0.04    -0.10   0.11   0.00
    17   1     0.00   0.00   0.00     0.02   0.10  -0.03    -0.08   0.12   0.01
    18   1     0.00   0.00   0.00    -0.02  -0.49  -0.10     0.17   0.17   0.16
    19   1     0.00   0.00   0.00    -0.28  -0.35   0.16     0.37   0.04   0.07
    20   1     0.00   0.00   0.00    -0.04  -0.40  -0.06     0.27  -0.02   0.01
    21   8    -0.01  -0.02  -0.06     0.02  -0.01  -0.03    -0.16  -0.02  -0.03
    22   8     0.01  -0.01   0.04     0.02   0.04  -0.03    -0.11   0.09  -0.04
                      4                      5                      6
                      A                      A                      A
 Frequencies --     84.2272                98.0293               152.2923
 Red. masses --      1.0278                 5.5667                 4.8709
 Frc consts  --      0.0043                 0.0315                 0.0666
 IR Inten    --      0.7787                 6.1828                 3.4229
  Atom  AN      X      Y      Z        X      Y      Z        X      Y      Z
     1   8    -0.01  -0.01   0.01     0.24   0.06  -0.12    -0.03   0.10  -0.03
     2   6     0.00   0.00   0.00    -0.14   0.00  -0.13     0.06  -0.01   0.04
     3   6     0.01   0.01   0.01    -0.12  -0.02  -0.13    -0.06  -0.18  -0.01
     4   6     0.01   0.00   0.01    -0.06  -0.02  -0.01    -0.09  -0.13  -0.08
     5   6     0.00  -0.01   0.00    -0.06  -0.01   0.14    -0.04  -0.11  -0.10
     6   6     0.00   0.00   0.00     0.05  -0.03   0.03    -0.13  -0.10   0.00
     7   1    -0.01   0.00   0.00     0.14   0.03  -0.07    -0.20  -0.14  -0.03
     8   6     0.00   0.00   0.00     0.02   0.08   0.07    -0.03   0.05  -0.02
     9   8     0.00   0.01   0.00     0.07   0.19   0.13     0.07   0.23  -0.12
    10   6    -0.01  -0.01   0.00    -0.07   0.06   0.01     0.10   0.09   0.05
    11   1     0.01   0.00   0.00    -0.51  -0.05  -0.13     0.29   0.02   0.16
    12   1     0.01   0.01   0.00    -0.07  -0.03  -0.18    -0.05  -0.30   0.11
    13   1     0.02   0.01   0.01    -0.12  -0.03  -0.17    -0.16  -0.23  -0.11
    14   1     0.02   0.00   0.01     0.03  -0.07  -0.03    -0.17  -0.15  -0.08
    15   1     0.02  -0.01   0.01    -0.13   0.02   0.02    -0.09  -0.09  -0.13
    16   1     0.00  -0.01   0.00     0.03  -0.01   0.31    -0.10  -0.11  -0.21
    17   1     0.01  -0.01   0.00    -0.23   0.01   0.19     0.07  -0.08  -0.12
    18   1    -0.14   0.51  -0.23    -0.08   0.14  -0.09     0.07   0.16   0.17
    19   1     0.48  -0.05   0.33     0.00   0.06   0.06     0.19   0.10   0.04
    20   1    -0.32  -0.46  -0.08    -0.17   0.00   0.03     0.18   0.09   0.02
    21   8    -0.01   0.00  -0.01    -0.04  -0.01   0.02     0.16   0.00   0.11
    22   8    -0.01   0.01   0.00     0.09  -0.27  -0.01    -0.05   0.00   0.15
                      7                      8                      9
                      A                      A                      A
 Frequencies --    173.6825               185.5409               227.4001
 Red. masses --      2.9077                 4.4947                 4.6771
 Frc consts  --      0.0517                 0.0912                 0.1425
 IR Inten    --      2.7357                 5.4368                 0.4000
  Atom  AN      X      Y      Z        X      Y      Z        X      Y      Z
     1   8    -0.04  -0.10   0.06     0.05   0.08   0.07    -0.06   0.16   0.14
     2   6     0.05   0.05  -0.01    -0.14   0.06   0.06    -0.01   0.13   0.16
     3   6     0.06   0.23   0.05    -0.02   0.05   0.05    -0.04  -0.01   0.12
     4   6    -0.04   0.02  -0.16     0.06   0.01   0.24    -0.11  -0.14  -0.04
     5   6    -0.10   0.00   0.01    -0.05  -0.06   0.02    -0.01  -0.10   0.03
     6   6    -0.05  -0.04   0.00    -0.07   0.02  -0.09     0.10  -0.12  -0.07
     7   1     0.01   0.00  -0.02    -0.03   0.03  -0.17     0.08  -0.12  -0.04
     8   6    -0.02  -0.01   0.00    -0.06  -0.01  -0.10     0.11  -0.07  -0.06
     9   8     0.01   0.03  -0.06    -0.06  -0.06  -0.23     0.11  -0.03   0.08
    10   6     0.06   0.00   0.05     0.03  -0.06  -0.04    -0.05   0.04  -0.21
    11   1     0.05   0.05  -0.12    -0.37   0.03  -0.02    -0.03   0.08   0.02
    12   1    -0.13   0.44   0.04     0.04   0.08  -0.03    -0.11  -0.06   0.24
    13   1     0.27   0.34   0.22     0.03   0.07   0.01     0.01   0.00   0.03
    14   1    -0.17  -0.18  -0.21     0.24   0.23   0.30    -0.27  -0.30  -0.09
    15   1     0.09   0.08  -0.40     0.07  -0.17   0.48    -0.05  -0.05  -0.25
    16   1    -0.04  -0.06   0.10    -0.05  -0.04   0.03     0.04  -0.03   0.16
    17   1    -0.20   0.07   0.05    -0.07  -0.21   0.00    -0.13  -0.10   0.06
    18   1     0.05   0.02   0.12     0.02  -0.06   0.01    -0.04   0.07  -0.34
    19   1     0.08   0.00   0.04     0.03  -0.06   0.00    -0.04   0.06  -0.31
    20   1     0.12   0.01   0.02     0.09  -0.09  -0.08    -0.21   0.12  -0.11
    21   8     0.04  -0.01   0.03     0.15   0.12   0.01    -0.05   0.12  -0.06
    22   8     0.01  -0.16   0.03     0.05  -0.14   0.02     0.04  -0.02  -0.08
                     10                     11                     12
                      A                      A                      A
 Frequencies --    292.8205               315.9692               350.0618
 Red. masses --      2.4004                 5.7418                 3.3496
 Frc consts  --      0.1213                 0.3377                 0.2418
 IR Inten    --      2.2617                 9.1554                 1.8537
  Atom  AN      X      Y      Z        X      Y      Z        X      Y      Z
     1   8     0.00   0.00  -0.04    -0.09   0.24  -0.02     0.01   0.01  -0.06
     2   6     0.07  -0.02  -0.02     0.23   0.08   0.12     0.08   0.00  -0.05
     3   6    -0.01  -0.03  -0.02     0.06  -0.08   0.07    -0.04   0.09  -0.02
     4   6    -0.01  -0.03  -0.02     0.03   0.10   0.02     0.00   0.10   0.09
     5   6    -0.05  -0.04   0.25    -0.01   0.08   0.02    -0.10   0.04   0.01
     6   6     0.00   0.07  -0.01     0.02   0.07  -0.02    -0.05  -0.04   0.06
     7   1    -0.03   0.05  -0.05     0.15   0.16  -0.13    -0.02  -0.02   0.17
     8   6     0.00   0.05  -0.02    -0.05   0.07   0.00     0.09  -0.10  -0.02
     9   8    -0.04  -0.03  -0.07    -0.08   0.00  -0.08     0.13  -0.03  -0.04
    10   6    -0.04  -0.01  -0.02     0.00  -0.02   0.07    -0.06   0.05  -0.19
    11   1     0.23  -0.01   0.04     0.52  -0.03  -0.05     0.38   0.02   0.00
    12   1    -0.01  -0.06   0.01     0.15  -0.30   0.20    -0.02   0.12  -0.06
    13   1    -0.03  -0.05  -0.03    -0.17  -0.19  -0.05    -0.05   0.09   0.05
    14   1     0.00  -0.22  -0.08     0.00   0.12   0.03     0.14   0.25   0.14
    15   1    -0.04   0.07  -0.15     0.01   0.11   0.03     0.00  -0.02   0.27
    16   1     0.14  -0.12   0.62     0.00   0.07   0.04    -0.12   0.03  -0.04
    17   1    -0.43  -0.06   0.33    -0.03   0.07   0.02    -0.03   0.04   0.00
    18   1    -0.02  -0.04  -0.07     0.01  -0.05   0.11    -0.06   0.10  -0.36
    19   1    -0.08  -0.02   0.03    -0.03  -0.03   0.15    -0.04   0.08  -0.37
    20   1    -0.05  -0.05  -0.04     0.08  -0.08   0.01    -0.28   0.18  -0.05
    21   8     0.10  -0.03  -0.03    -0.15  -0.21  -0.05     0.00  -0.14   0.09
    22   8    -0.01   0.10   0.00     0.06  -0.25  -0.09    -0.07  -0.01   0.11
                     13                     14                     15
                      A                      A                      A
 Frequencies --    372.0891               414.3244               469.5597
 Red. masses --      4.1627                 2.9553                 3.3247
 Frc consts  --      0.3396                 0.2989                 0.4319
 IR Inten    --      2.9878                 6.3022                 7.8654
  Atom  AN      X      Y      Z        X      Y      Z        X      Y      Z
     1   8     0.01   0.07  -0.05     0.01   0.17  -0.10    -0.02   0.04  -0.01
     2   6     0.05   0.05  -0.03    -0.15  -0.14   0.05    -0.04  -0.10   0.07
     3   6    -0.11   0.12   0.00     0.04   0.05   0.12     0.16  -0.10   0.05
     4   6    -0.07  -0.02   0.12    -0.02  -0.05  -0.01     0.09   0.16  -0.08
     5   6    -0.11  -0.06  -0.02     0.06   0.00  -0.02    -0.13   0.07  -0.02
     6   6    -0.03  -0.09  -0.06     0.02   0.02   0.01    -0.11   0.01   0.00
     7   1    -0.03  -0.09   0.01    -0.01   0.00   0.00    -0.06   0.04   0.14
     8   6    -0.01  -0.04   0.00     0.00   0.02   0.00     0.02  -0.07  -0.04
     9   8     0.00   0.02   0.22    -0.01  -0.01  -0.03     0.04   0.00   0.12
    10   6     0.09  -0.05   0.09    -0.01   0.01   0.00     0.04  -0.02  -0.04
    11   1     0.47   0.03  -0.14    -0.38  -0.27   0.08    -0.52  -0.15   0.09
    12   1    -0.17   0.21  -0.01    -0.15   0.40  -0.02     0.30  -0.24   0.01
    13   1     0.00   0.16   0.07     0.33   0.21   0.41    -0.07  -0.20   0.05
    14   1     0.08   0.15   0.17    -0.18  -0.16  -0.05    -0.01   0.17  -0.07
    15   1    -0.04  -0.17   0.31     0.03   0.02  -0.18     0.14   0.15  -0.13
    16   1    -0.12   0.01  -0.05     0.02   0.04  -0.09    -0.04  -0.12   0.15
    17   1    -0.05  -0.13  -0.05     0.13   0.01  -0.03    -0.35   0.12   0.05
    18   1     0.08  -0.04   0.25    -0.01  -0.01  -0.03     0.03   0.02   0.02
    19   1     0.14  -0.06   0.14    -0.03   0.00   0.01     0.10  -0.01  -0.10
    20   1     0.25  -0.08   0.02    -0.03   0.00   0.00     0.07   0.02  -0.03
[...]
 1,-0.00215312,0.00080839,0.00134006,-0.00066792,0.00019746,0.00042756,
 0.00113218,-0.00778778,-0.00098541,0.07347569,0.10354119,0.00173299,0.
 00007658,-0.00222844,-0.01818658,-0.00587980,-0.03576243,-0.05578041,-
 0.05348640,-0.07881482,0.00210826,0.00260426,0.00599377,0.00019781,0.0
 0025239,-0.00036195,-0.00075812,0.00005225,-0.00005456,0.00002209,0.00
 003916,-0.00010558,0.00572729,-0.00349432,0.00020837,-0.00343055,0.002
 79536,0.00012272,-0.00123112,0.00047314,0.00015508,0.00098927,-0.00468
 557,-0.00168736,0.06816414,0.06334002,0.10921043,-0.00027899,-0.000166
 95,0.00070784,0.00303223,0.00698841,-0.00633967,-0.05795195,0.05866320
 ,-0.00334851,-0.02212380,0.02408314,0.00589649,-0.00258119,0.00015697,
 0.00113434,-0.00008762,-0.00025437,-0.00000857,-0.00002439,0.00000838,
 -0.00001175,0.00028669,-0.00004919,0.00037639,-0.00031477,0.00011120,-
 0.00021521,-0.00007020,-0.00000789,-0.00017014,0.00053357,-0.00158074,
 -0.00027360,0.00527101,-0.00874418,-0.00099182,0.07582304,0.00022788,-
 0.00076176,-0.00249210,0.00545763,-0.01610083,0.02059197,0.06263651,-0
 .18438864,0.01021143,0.01251914,-0.00485819,-0.00388369,-0.00038998,0.
 00020473,0.00005725,0.00005368,0.00011302,-0.00001069,0.00003199,-0.00
 004743,0.00000324,0.00032492,-0.00022543,-0.00056549,-0.00016145,0.000
 20246,0.00041988,-0.00014164,0.00004372,0.00034570,0.00008491,0.000154
 40,0.00036762,0.00030172,-0.02031463,-0.00540079,-0.08113708,0.2248445
 9,0.00003326,-0.00041691,0.00115591,-0.00834100,0.02729324,-0.01513612
 ,-0.00428595,0.00890393,-0.03362514,0.00713918,-0.00804350,0.00155761,
 0.00137787,-0.00014706,-0.00040147,0.00025696,0.00018427,-0.00022755,-
 0.00001529,-0.00003271,-0.00001118,0.00035123,-0.00021445,0.00001146,-
 0.00019459,0.00027380,-0.00005023,-0.00014268,0.00006886,0.00008328,-0
 .00023620,0.00544857,-0.00030795,0.00110395,-0.01080615,0.00222203,0.0
 0216244,-0.01936398,0.04557674,0.00050548,-0.00021598,0.00034904,-0.00
 302256,0.00115501,0.00062119,-0.01022632,-0.00626721,0.02816160,-0.032
 97538,0.00328867,-0.01207382,-0.00105877,0.01016788,-0.01019962,-0.000
 13703,-0.00014217,-0.00010313,-0.00001097,-0.00003700,-0.00004119,0.00
 120403,-0.00138970,-0.00022014,-0.00038834,0.00092954,0.00008771,-0.00
 043130,0.00007879,0.00010659,0.00038748,-0.00101837,-0.00024479,-0.000
 30762,-0.00045948,0.00077891,-0.00032119,0.00012362,0.00080184,0.04767
 203,0.00004831,-0.00026560,-0.00032669,-0.00019787,0.00064884,0.000502
 79,-0.00288863,0.00221030,0.00464222,0.00288412,-0.04933650,0.04898576
 ,0.01028689,-0.02062140,0.02496511,-0.00001783,-0.00007638,0.00058665,
 0.00011076,0.00006182,0.00001374,-0.00015513,-0.00191403,-0.00122295,-
 0.00006846,0.00021040,0.00017979,-0.00013026,0.00019944,0.00034409,0.0
 0001476,-0.00022268,-0.00008287,-0.00061976,0.00011335,0.00036253,0.00
 034647,0.00039356,-0.00049896,-0.00861590,0.06681945,-0.00012054,-0.00
 014915,0.00008842,0.00098651,0.00079868,-0.00085496,0.01492364,0.00450
 681,-0.02115785,-0.01085186,0.05186634,-0.19356869,-0.00528814,0.01200
 691,-0.00542535,0.00017233,-0.00001426,-0.00000307,-0.00010003,-0.0000
 3132,-0.00004705,0.00057210,-0.00123057,0.00119876,-0.00029954,0.00067
 886,-0.00055793,-0.00003888,0.00070444,-0.00032123,0.00004922,-0.00080
 580,-0.00018318,0.00044807,0.00034781,0.00047743,0.00067138,-0.0004061
 0,-0.00011715,0.00668524,-0.06696679,0.23833892,-0.00015809,-0.0000001
 3,-0.00041295,-0.00063582,-0.00079698,0.00053340,-0.03251763,-0.017073
 18,-0.00432542,-0.09276334,-0.06801704,-0.04844988,0.00580873,0.003648
 27,0.00247179,-0.00039163,0.00157523,0.00012208,0.00021343,0.00012675,
 0.00011461,-0.00013505,-0.00001082,-0.00052904,0.00011047,-0.00000208,
 0.00013625,-0.00010249,0.00002457,0.00022657,-0.00010994,0.00018159,0.
 00000541,-0.00267731,-0.00009332,0.00110728,-0.00083837,-0.00000373,-0
 .00020756,-0.00035594,-0.00299039,-0.00723536,0.12373310,-0.00011457,-
 0.00032836,-0.00053442,-0.00056124,-0.00008088,0.00166893,-0.00906584,
 -0.00016271,-0.00065094,-0.06776614,-0.11003602,-0.05397088,-0.0067916
 5,-0.03547135,-0.01353165,0.00136646,-0.00250558,0.00005043,-0.0002433
 6,-0.00038021,-0.00019742,0.00016527,-0.00011811,-0.00015668,0.0000464
 1,0.00008051,0.00016110,-0.00004362,0.00007311,0.00017415,-0.00008714,
 0.00010890,0.00006188,-0.00029442,0.00017722,-0.00012980,0.00032948,0.
 00061423,-0.00002843,-0.00008542,0.00425050,-0.00145895,0.08270072,0.1
 4510017,-0.00017656,-0.00057322,-0.00049145,0.00127653,0.00146417,0.00
 119296,0.00594041,0.00440720,0.00468765,-0.05029006,-0.05704921,-0.074
 06352,0.00040918,-0.00518532,0.00200981,-0.00026640,0.00027018,0.00022
 202,0.00005571,0.00002427,0.00002660,-0.00013772,-0.00005204,0.0001705
 4,0.00003417,0.00000963,-0.00007261,0.00007334,0.00014495,-0.00003145,
 0.00021772,-0.00081940,-0.00022461,0.00109800,-0.00023122,-0.00029994,
 -0.00010171,0.00022607,0.00041453,-0.01434710,-0.01192224,-0.01845776,
 0.05606919,0.06886130,0.08424651,0.00000864,-0.00026049,-0.00038990,-0
 .00002116,0.00047396,0.00051663,-0.00021430,0.00123978,-0.00020483,-0.
 02153264,0.01441968,0.00883408,-0.17214295,-0.00841580,0.07099789,-0.0
 2548959,-0.01544743,0.00384472,0.00039716,-0.00044777,0.00008349,-0.00
 084408,-0.00020997,-0.00161239,0.00027412,-0.00016410,0.00035624,-0.00
 043415,0.00012884,0.00052273,0.00002983,-0.00030316,-0.00007920,-0.000
 02950,0.00001776,-0.00000510,-0.00025064,0.00008369,0.00008093,-0.0002
 8355,0.00040541,-0.00035235,0.00030437,0.00042015,0.00026463,0.2202822
 1,-0.00002022,0.00007705,-0.00004466,-0.00000311,-0.00039721,0.0003377
 6,0.00163872,-0.00251205,-0.00011457,0.02437354,-0.00749526,-0.0096415
 9,-0.00901091,-0.03358314,0.00434724,-0.02177666,-0.00694864,0.0039640
 9,-0.00086983,-0.00064958,0.00005766,-0.00042739,0.00007727,0.00001744
 ,0.00018597,-0.00013882,0.00010677,0.00017529,-0.00023976,0.00016443,-
 0.00000464,0.00034895,0.00005640,-0.00016809,-0.00006221,-0.00001556,0
 .00042612,0.00006053,-0.00023181,0.00073086,-0.00001703,0.00002100,0.0
 0067849,-0.00056938,-0.00047409,0.01062595,0.05136230,-0.00005291,0.00
 008827,0.00001726,0.00018161,-0.00027832,0.00007895,-0.00030072,0.0002
 4066,0.00002747,0.00383631,-0.00359293,0.00218107,0.07475864,0.0050085
 0,-0.06941296,-0.00672355,-0.00182141,0.00514108,-0.00009406,0.0000656
 4,0.00035015,-0.00100636,-0.00070982,0.00077334,0.00020834,-0.00009193
 ,-0.00020635,0.00065289,0.00047716,-0.00005518,0.00000884,0.00031515,0
 .00008011,0.00005272,0.00006490,0.00009317,-0.00000837,-0.00000860,0.0
 0004993,-0.00045023,0.00040398,0.00046187,0.00022221,-0.00044416,0.000
 02466,-0.08778580,-0.00209940,0.07946172,-0.00004643,-0.00064938,-0.00
 067007,-0.00126231,0.00217790,0.00149116,-0.00015246,-0.00032887,-0.00
 021005,-0.00284160,0.01168847,-0.01340910,-0.03918238,0.00868331,-0.03
 196324,-0.00571227,-0.00595687,-0.02165168,0.00032240,-0.00016932,0.00
 000262,-0.00056815,-0.00191230,-0.00039482,-0.00009106,0.00045386,0.00
 012659,-0.00001131,0.00031277,0.00014831,-0.00087579,-0.00054730,0.000
 70568,-0.00022776,0.00010016,-0.00016799,0.00001307,0.00006922,-0.0000
 1929,-0.00030347,0.00159595,-0.00010520,0.00046736,-0.00014955,-0.0000
 1642,0.00072117,-0.00385724,0.01827709,0.05059146,0.00008057,-0.000577
 90,-0.00021232,0.00050080,0.00150804,-0.00050405,-0.00013354,-0.000329
 08,0.00048599,0.01170573,-0.01790592,0.02284623,0.00795171,-0.04145669
 ,0.03731735,-0.00815807,-0.00033762,-0.02074715,-0.00033125,-0.0003287
 0,-0.00085421,-0.00125122,-0.00224307,0.00051107,-0.00018888,0.0006385
 2,-0.00031805,0.00032496,0.00017593,-0.00023472,0.00005816,-0.00098974
 ,-0.00020138,0.00002289,-0.00004877,-0.00004729,-0.00007287,-0.0000219
 1,0.00011264,0.00121104,-0.00246198,0.00025956,0.00014480,-0.00080350,
 0.00060725,-0.00124784,0.00274311,0.00420340,-0.01113042,0.06166889,-0
 .00001112,-0.00025251,-0.00071824,0.00027355,0.00021319,0.00117743,0.0
 0022627,-0.00013141,-0.00039247,-0.00676458,0.01230177,-0.00540899,-0.
 03213320,0.03949384,-0.19068311,-0.01507735,-0.01135065,-0.02188605,0.
 00011582,-0.00065563,-0.00022638,-0.00091431,-0.00065625,-0.00103295,0
 .00049984,-0.00002428,0.00017836,0.00017122,0.00018111,0.00023784,0.00
 050846,-0.00115277,-0.00033192,-0.00009680,0.00000503,0.00003992,0.000
 04720,0.00006770,-0.00003795,-0.00014914,0.00018743,-0.00002804,0.0002
 6437,0.00026481,0.00052413,0.00599512,0.00465122,-0.01796074,0.0474818
 5,-0.04385044,0.23702136,0.00005069,-0.00034254,-0.00032448,-0.0001178
 1,0.00089612,0.00031893,-0.00009602,-0.00022996,-0.00009617,-0.0000656
 9,-0.00013780,-0.00006331,-0.00036551,0.00012042,0.00009187,0.00049878
 ,0.00047914,-0.00000124,0.00019923,-0.00021525,0.00005716,-0.02987374,
 -0.00106575,0.01484103,0.00107446,0.00037901,0.00062752,-0.20135258,-0
 .05240406,-0.01755460,0.00013729,-0.00083058,-0.00018033,0.00000987,0.
 00009892,0.00012050,-0.00000516,0.00004503,0.00004373,0.00009878,0.000
 07858,0.00005080,0.00006054,0.00001692,-0.00002041,0.00026771,-0.00004
 727,-0.00016598,0.00008498,-0.00004814,-0.00002598,0.24720749,0.000028
 24,-0.00021577,-0.00005151,-0.00008196,0.00072000,-0.00007919,-0.00008
 407,-0.00019626,0.00013546,0.00002403,-0.00007027,0.00015694,-0.000079
 41,-0.00007927,0.00025285,-0.00000121,-0.00038309,-0.00000986,-0.00009
 816,0.00013916,0.00042776,0.00389609,0.00614442,-0.00037122,0.00105090
 ,-0.00147788,-0.00084579,-0.05207599,-0.04782975,-0.00419082,0.0001212
 2,-0.00069901,-0.00016947,0.00003653,0.00004615,-0.00000507,0.00001079
 ,0.00000901,0.00000298,0.00005733,-0.00003947,-0.00020430,0.00001587,-
 0.00002238,-0.00006247,-0.00004143,0.00011576,-0.00028141,-0.00003142,
 0.00000938,-0.00004599,0.06241759,0.05074134,-0.00004204,0.00026055,0.
 00022703,0.00010069,-0.00065842,-0.00022659,-0.00017266,0.00014689,-0.
 00004339,0.00003979,0.00004478,-0.00002979,-0.00024676,0.00009926,-0.0
 0001686,0.00015905,-0.00068322,-0.00181123,0.00018742,0.00027864,-0.00
 044563,0.02463960,0.00506517,0.00049948,0.00148002,-0.00265880,-0.0025
 3980,-0.01817444,-0.00431466,-0.03682394,-0.00006882,0.00054882,0.0001
 0629,0.00006704,0.00003444,0.00011929,0.00002561,-0.00003593,0.0000079
 7,0.00004516,-0.00005939,0.00003660,-0.00002307,-0.00003003,-0.0000182
 9,-0.00012477,-0.00019675,-0.00041753,-0.00002858,-0.00004989,-0.00011
 229,0.01383341,0.00735826,0.04184950,0.00000679,-0.00008820,-0.0000685
 6,-0.00002366,0.00026307,0.00004634,-0.00006961,-0.00005624,-0.0000267
 4,0.00000145,-0.00000991,-0.00000165,-0.00021660,0.00009978,-0.0001510
 9,-0.00048530,-0.00056020,-0.00002982,0.00027827,-0.00008109,-0.000130
 81,0.00138247,0.01700262,0.00916727,-0.00259189,-0.00096883,0.00029825
 ,-0.03167733,0.00056132,0.00015808,0.00005179,-0.00029507,-0.00008499,
 0.00003030,0.00002800,0.00005392,0.00000904,0.00000673,0.00001627,0.00
 002579,0.00000219,-0.00000186,0.00001124,0.00000216,-0.00000854,0.0000
 7104,-0.00005236,-0.00008921,0.00000789,-0.00005972,-0.00003371,-0.003
 67825,-0.02172572,-0.00281027,0.03370454,-0.00003506,0.00013011,0.0002
 5410,0.00005950,-0.00018728,-0.00038170,-0.00001407,0.00011933,0.00022
 115,0.00007191,0.00003478,0.00007498,0.00007819,-0.00017930,0.00031597
 ,-0.00016309,0.00002783,0.00059579,-0.00011029,0.00048397,0.00006153,0
 .01194975,-0.01679891,-0.01751422,-0.00203317,0.00124063,0.00046957,-0
 .00149083,-0.21452148,-0.02341697,-0.00000240,0.00010694,-0.00000778,0
 .00002778,-0.00010111,-0.00015904,0.00001701,-0.00004392,-0.00001920,-
 0.00003674,-0.00006373,-0.00005637,-0.00002791,-0.00002840,-0.00002016
 ,-0.00006849,0.00001355,-0.00008221,-0.00001642,0.00007691,-0.00005534
 ,-0.00846980,-0.01275202,-0.00227256,-0.00327533,0.25902944,-0.0000567
 6,0.00032972,0.00028588,0.00013242,-0.00087566,-0.00026553,-0.00008217
 ,0.00019856,0.00001653,0.00003788,0.00004495,-0.00002198,0.00010994,-0
 .00003532,0.00033571,0.00068245,0.00150716,-0.00120968,-0.00020868,-0.
 00016717,-0.00099588,0.00712010,-0.02668842,-0.00770136,0.00145484,0.0
 0116400,-0.00142879,-0.00062025,-0.02425309,-0.03615629,-0.00011517,0.
 00082721,0.00019595,0.00004919,-0.00001154,0.00000164,0.00002500,-0.00
 004134,-0.00001215,0.00000251,-0.00003287,0.00003546,-0.00002545,-0.00
 002157,0.00000027,-0.00003586,-0.00005757,-0.00002895,0.00003772,0.000
 05161,-0.00003575,-0.00194008,-0.00435225,0.00369581,-0.00459440,0.035
 13065,0.04296052,-0.00002816,0.00012593,0.00011281,0.00006072,-0.00031
 408,-0.00011895,-0.00011533,0.00008877,-0.00001661,0.00001057,-0.00000
 127,-0.00001649,0.00004305,-0.00007528,0.00018537,-0.00088393,0.000929
 26,0.00161174,-0.00005236,0.00010161,-0.00009622,0.00955278,-0.0052664
 6,0.01370867,-0.00169451,0.00067618,-0.00112703,-0.06141996,0.02714657
 ,-0.05586447,-0.00002477,0.00024893,0.00003820,0.00007023,-0.00000404,
 0.00005383,0.00002950,-0.00001901,0.00001317,0.00004093,-0.00002319,0.
 00000810,0.00000046,-0.00001242,-0.00000785,0.00001372,0.00000423,-0.0
 0005735,0.00000829,0.00002037,-0.00001662,-0.01361884,0.00659081,-0.01
 873427,0.00330413,0.00327402,-0.00176526,0.06451232,0.00004049,-0.0002
 8775,-0.00013103,-0.00010701,0.00087696,0.00002645,0.00000545,-0.00024
 574,0.00012123,0.00002746,-0.00005647,0.00015866,-0.00004263,0.0000003
 1,0.00015241,0.00090061,0.00010164,-0.00106896,0.00003810,0.00002030,0
 .00008357,-0.00274382,0.00766030,-0.00193712,0.00057440,-0.00129030,0.
 00023682,0.02681754,-0.06560434,0.06329905,0.00013230,-0.00082038,-0.0
 0018616,0.00000495,0.00005650,-0.00004584,-0.00000568,0.00002775,-0.00
 001124,-0.00001441,0.00000534,-0.00019933,0.00000679,-0.00000236,-0.00
 003995,-0.00000284,0.00004476,-0.00007911,0.00000742,0.00000514,-0.000
 01343,-0.00115777,0.00557421,-0.00253169,0.00910872,-0.01644260,0.0176
 2229,-0.03332620,0.06998117,-0.00005518,0.00026705,0.00032649,0.000106
 35,-0.00060564,-0.00040731,-0.00000601,0.00020658,0.00020404,0.0000649
 9,0.00008370,0.00007231,-0.00003001,-0.00001241,0.00018215,0.00080276,
 -0.00045618,-0.00130955,0.00003495,0.00000520,0.00004832,0.00583786,0.
 00448494,-0.04015372,-0.00263120,0.00105300,0.00071593,-0.05426020,0.0
 6144378,-0.16242517,-0.00007708,0.00057731,0.00013053,0.00001001,-0.00
 011788,-0.00017608,0.00002335,-0.00006829,-0.00002327,-0.00003887,-0.0
 0010208,-0.00005813,-0.00003102,-0.00003996,-0.00001029,-0.00005743,-0
 .00002062,-0.00009667,-0.00001900,0.00002996,-0.00005438,-0.00948400,0
 .00218989,-0.00426955,-0.00192282,0.00672119,0.00058912,0.06180270,-0.
 07534136,0.20703276,-0.00059332,0.00273253,0.00153590,0.00017640,0.000
 47963,-0.00002902,0.00027500,0.00130357,-0.00071635,-0.00047805,0.0001
 1457,0.00013376,-0.00121957,-0.00416364,0.00258746,0.02403991,-0.00013
 140,0.02440068,-0.00022113,0.00081240,-0.00074533,-0.00388497,-0.00106
 641,0.00517047,0.00072416,0.00010218,-0.00060375,0.00047825,-0.0001939
 7,0.00088225,-0.01103641,0.02607045,0.00681499,-0.00001788,0.00031827,
 0.00024346,0.00006141,-0.00015781,-0.00028318,0.00009561,-0.00006925,0
 .00003879,-0.00002870,0.00000813,0.00002039,0.00035638,0.00040860,0.00
 016958,-0.00089172,0.00041108,-0.00102001,0.00007245,0.00002066,-0.000
 03239,-0.00000302,-0.00000469,0.00003489,-0.00012650,0.00013001,0.0000
 8639,0.05893635,-0.00365647,0.02510768,0.01927186,0.01806914,-0.150582
 96,-0.01285125,-0.00146446,0.00610580,-0.00385285,-0.00186561,0.000371
 06,-0.00088953,-0.00225657,-0.00204151,0.00306158,0.01023463,-0.002653
 46,0.00814935,0.00143319,-0.00012047,-0.00071309,-0.00369732,0.0013680
 2,-0.00295278,0.00169923,-0.00215932,0.00177708,-0.00005151,-0.0003915
 5,0.00323536,-0.00184719,0.08471995,0.02137585,0.00097519,0.00336244,0
 .00250292,0.00055880,-0.00010030,-0.00170727,0.00052701,0.00006686,0.0
 0034160,-0.00008235,-0.00001990,0.00035542,0.00023847,-0.00001459,-0.0
 0003590,-0.00027559,0.00046492,-0.00013874,0.00049624,0.00028264,-0.00
 028128,0.00008221,-0.00022184,-0.00030544,-0.00021369,0.00040721,-0.00
 025886,-0.02595717,0.07038057,-0.00635464,0.04405483,0.03318917,0.0235
 4890,-0.19512814,-0.01889204,-0.00428069,0.01530521,-0.00823905,-0.003
 67391,0.00170781,-0.00239407,-0.00164257,-0.00419981,0.00033217,0.0465
 0557,0.02544988,-0.09925310,-0.00142089,0.00081142,0.00007616,0.010185
 14,0.00359467,-0.00464270,0.00014829,-0.00417426,0.00298134,-0.0017007
 9,-0.00206787,0.00094665,-0.03303642,0.23436627,0.04961995,0.00240709,
 0.00757878,0.00453231,0.00132265,-0.00071596,-0.00354379,0.00089216,0.
 00001321,0.00073575,-0.00032384,-0.00028962,0.00065353,-0.00033869,-0.
 00078899,-0.00038857,0.00064972,0.00174670,0.00057273,0.00024591,0.000
 58848,0.00000542,0.00043372,0.00047305,-0.00049621,0.00015590,0.000516
 57,-0.00035400,0.01046922,-0.11507706,0.15489826,0.00070061,-0.0052631
 2,-0.00374228,-0.00151600,0.02153354,0.00186918,0.00105097,-0.00110303
 ,0.00140864,0.00045823,0.00005635,0.00063525,-0.03055710,-0.01943484,0
 .01088308,-0.18608432,-0.02977953,0.03821545,-0.03144528,0.00370020,0.
 02225823,0.01387534,-0.00327360,0.00920450,-0.00227673,0.00027962,0.00
 070055,-0.00004808,-0.00044059,-0.00335898,0.00580890,-0.03227057,-0.0
 0837673,-0.00069447,-0.00140495,-0.00074878,-0.00021117,0.00004394,0.0
 0034603,-0.00020812,0.00000304,-0.00021281,0.00000491,0.00015987,-0.00
 008739,-0.00148400,-0.00300963,-0.00163254,-0.00004891,0.00019037,0.00
 065874,-0.00058867,-0.00005023,-0.00011926,-0.00013869,0.00026956,-0.0
 0024265,0.00031713,-0.00039367,-0.00015646,-0.06671831,0.00704888,-0.0
 4419207,0.29980568,-0.00053031,0.00403397,0.00282725,0.00180632,-0.023
 93873,-0.00357339,-0.00075161,-0.00051555,-0.00173873,-0.00108626,-0.0
 0028250,0.00027752,-0.02560740,-0.01162681,0.00866439,-0.03229590,-0.0
 3497358,0.00271281,0.01136983,0.00278569,-0.00785663,-0.00169430,0.000
 63956,0.01134684,-0.00032262,0.00036222,-0.00103705,0.00001665,0.00005
 618,-0.00020717,-0.01239077,0.03042170,-0.00991381,0.00072040,0.000988
 44,0.00085344,0.00031700,0.00019477,-0.00076969,0.00001200,0.00003912,
 -0.00000851,-0.00000480,0.00012504,0.00005849,-0.00144497,-0.00221544,
 -0.00134321,-0.00006424,0.00021467,0.00096170,-0.00007937,-0.00001720,
 -0.00006382,0.00001639,0.00007806,-0.00003398,0.00004859,-0.00001220,-
 0.00003866,-0.00116455,-0.03434498,-0.01375926,0.06312964,0.06799435,0
 .00470073,-0.03270682,-0.02279585,-0.01442796,0.11743745,0.00902306,0.
 00323635,-0.00976730,0.00759585,0.00280929,-0.00134303,0.00182930,0.00
 580363,0.01108044,0.00565394,0.02647827,-0.00374960,-0.02686121,0.0178
 5485,-0.00402192,-0.00472654,0.00686353,0.01202644,-0.04315513,0.00217
 066,0.00044965,0.00150837,-0.00010474,0.00132472,-0.00295184,0.0217604
 4,-0.17484548,-0.06786003,-0.00214784,-0.00590670,-0.00368494,-0.00092
 310,0.00070094,0.00241680,-0.00066480,0.00002691,-0.00059232,0.0002902
 3,0.00024182,-0.00050405,-0.00050920,-0.00003746,-0.00017352,-0.000264
 89,-0.00115204,-0.00084331,-0.00037392,-0.00044312,0.00020748,-0.00021
 998,-0.00033329,0.00023577,0.00013025,-0.00063037,0.00003742,-0.049158
 06,0.07899193,-0.11033641,-0.02330315,0.01265113,0.25597430\\0.0000002
 3,-0.00000056,-0.00000103,-0.00000018,0.00000010,0.00000104,-0.0000000
 5,0.00000011,-0.00000043,-0.00000013,-0.00000051,0.00000001,0.00000005
 ,0.00000057,0.00000020,-0.00000054,-0.00000008,-0.00000016,-0.00000013
 ,0.00000021,-0.00000001,0.00000063,-0.00000031,0.00000021,0.00000007,0
 .,-0.00000006,-0.00000054,0.00000005,0.00000058,-0.00000003,0.00000026
 ,0.,0.00000024,0.00000016,0.00000023,0.00000012,-0.00000019,-0.0000000
 3,0.,-0.00000006,0.00000010,0.00000002,-0.00000008,0.,-0.00000034,-0.0
 0000008,0.00000015,-0.00000009,0.00000003,-0.00000042,0.00000008,0.000
 00007,-0.00000002,0.,0.00000005,0.,0.00000005,0.00000001,-0.00000002,-
 0.00000006,0.00000004,-0.00000002,0.00000058,0.00000021,-0.00000032\\\
 @


 SLITHERY-DITHERY
 FRIEDRICH A. KEKULE
 DREAMT ON A BUS OF THINGS
 FREUD WOULD THINK KEEN.
 MOST OF THE TIME THEY WERE
 HERPETOLOGICAL
 BITING THEIR TAILS IN THE
 SHAPE OF BENZENE.
 Job cpu time:       0 days  0 hours  0 minutes  1.8 seconds.
 File lengths (MBytes):  RWF=     57 Int=      0 D2E=      0 Chk=      2 Scr=      1
 Normal termination of Gaussian 09 at Thu Feb 18 23:36:25 2021.
