22
Properties=species:S:1:pos:R:3 energy=-15622.5331319847 pbc="F F F"
O       -0.87143800       3.00776400       3.07107300
C       -0.45191300       2.10138900       2.38799700
C       -0.34269600       2.21007800       0.88371400
C        1.07970300       1.95700300       0.38176600
C        1.58694000       0.52468100       0.59658100
C        0.78048400      -0.56535300      -0.08227700
H        1.34237100      -1.51488500      -0.15226900
C        0.14512500      -0.17424900      -1.40541000
O       -1.02324100       0.12241300      -1.48537000
C        1.06667500      -0.20720800      -2.58667800
H       -0.13562900       1.13760100       2.82277500
H       -1.05791000       1.49324000       0.41434800
H       -0.68649100       3.21289600       0.55192400
H        1.12679800       2.21749900      -0.69576000
H        1.77711900       2.66192700       0.88219100
H        2.64534800       0.46243100       0.26969200
H        1.60268800       0.29267200       1.68994800
H        2.04076200       0.25355400      -2.37983500
H        1.25631700      -1.23880800      -2.91734300
H        0.62505000       0.32042600      -3.44778000
O       -0.24443200      -1.01312100       1.95207100
O       -0.45174000      -0.93635800       0.79559300
