22
Properties=species:S:1:pos:R:3:momenta:R:3:forces:R:3 pbc="F F F"
O       -1.11956308       1.56252822       3.41153895       0.36746611       1.04017775       2.79510469       0.05740960       0.00768548       0.08166171
C       -0.99714593       0.98338347       2.38247557      -1.65250619       0.97497758      -0.56703255      -0.16374856      -0.50712554      -0.36990509
C       -0.98872279       1.45164071       0.96875044       0.65768420       0.82567894      -1.83149751       0.02341190       0.00758003       0.01397095
C        0.41993989       1.41462809       0.36476512       1.04586721       1.65473486      -0.63384423       0.02538819      -0.02978471      -0.00596461
C        1.09390870       0.03735250       0.42136773      -0.49628294       0.58711593      -0.83431855       0.01874233      -0.02340339      -0.01583579
C        0.29231328      -1.11699985      -0.17427515       1.31558630       1.08159527       0.45373484      -0.04017642       0.02030637      -0.00102545
H        0.90580778      -2.04232210      -0.20966087      -0.04219165      -0.26018302      -0.03472569      -0.04909415       0.05071186       0.02377264
C       -0.32333933      -0.77968494      -1.53629435       0.65964640       0.29378436       1.67554266       0.05121479       0.02491575      -0.00525247
O       -1.39817203      -0.24115745      -1.64509974      -0.39974563       0.61219887       1.99142909       0.02457291       0.02166401       0.04506516
C        0.51863823      -1.16783484      -2.71432649      -0.31966479      -0.97893448       0.51100548       0.01254924       0.00453614      -0.03644172
H       -0.84714895      -0.33345436       2.42384260      -0.22166847       0.32978042      -0.00956456       0.01251112       0.89880724       0.47722070
H       -1.66672988       0.79507585       0.35670373      -0.13581472      -0.03648971      -0.04702914       0.03472171      -0.00002771       0.00371286
H       -1.41332033       2.47473560       0.89560747      -0.65111968      -0.02105949      -0.41652830      -0.03845827       0.02430408      -0.00465679
H        0.35210857       1.75938391      -0.68867865       0.14115998      -0.00021820       0.42895034      -0.01624223       0.01334508      -0.00058528
H        1.06727051       2.15287400       0.88215372      -0.36741157       0.03499590       0.25205654       0.02985868       0.00094589       0.00606771
H        2.08200106       0.09535446      -0.07825203       0.13020977      -0.05724726      -0.49195703       0.03045633       0.00767150      -0.02902971
H        1.31354657      -0.22810671       1.48243839      -0.29560426      -0.41678723       0.19043012       0.00804076       0.00666835      -0.01950622
H        1.56394157      -0.85172821      -2.61275078       0.23021961      -0.02792747       0.03368044      -0.00126198      -0.00193205      -0.01139303
H        0.51853916      -2.25807063      -2.86233384      -0.04016151      -0.34922372      -0.06581904       0.00585393      -0.00246688       0.00223404
H        0.12696571      -0.72584722      -3.64458886      -0.24927070       0.34490696      -0.43413501       0.00091520       0.01142810      -0.02852213
O       -0.60206450      -1.51834868       1.92251662       0.19029473       1.54630538      -0.79690825       0.03450023      -0.54093965      -0.16320406
O       -0.89877419      -1.46340181       0.65410042       0.42509321       2.23129935      -0.75618864      -0.06116531       0.00511006       0.03761659
