22
Properties=species:S:1:pos:R:3 energy=-15622.462858580291 pbc="F F F"
O       -1.04080951       1.85313948       3.28879600
C       -0.96093084       1.30094394       2.24090960
C       -0.41112598       1.73139936       0.92547166
C        0.92195570       1.04205598       0.61210765
C        0.85840471      -0.49089611       0.63068216
C       -0.21870179      -1.11961247      -0.24933591
H       -0.10634581      -2.22436949      -0.27648641
C       -0.27663111      -0.51019754      -1.65402890
O       -0.92829781       0.47415889      -1.90599897
C        0.54294256      -1.23200066      -2.68098833
H       -1.44319819       0.06921670       2.14853225
H       -1.15091666       1.48304759       0.11528388
H       -0.29138073       2.83465641       0.89646309
H        1.26610671       1.39419132      -0.38326273
H        1.69471870       1.37833766       1.33424830
H        1.84949320      -0.89927576       0.34734458
H        0.67906408      -0.84507270       1.67326398
H        1.56127886      -1.44936945      -2.33654430
H        0.07927929      -2.19015433      -2.95933804
H        0.62479963      -0.64295809      -3.60860718
O       -1.65744759      -1.08280143       1.56344687
O       -1.59225743      -0.87443932       0.27804074
