 Entering Gaussian System, Link 0=g09
 Initial command:
 /cm/shared/apps/Gaussian09/g09/l1.exe "/local/Gau-1586.inp" -scrdir="/local/"
 Entering Link 1 = /cm/shared/apps/Gaussian09/g09/l1.exe PID=      1587.
  
 Copyright (c) 1988,1990,1992,1993,1995,1998,2003,2009,2013,
            Gaussian, Inc.  All Rights Reserved.
  
 This is part of the Gaussian(R) 09 program.  It is based on
 the Gaussian(R) 03 system (copyright 2003, Gaussian, Inc.),
 the Gaussian(R) 98 system (copyright 1998, Gaussian, Inc.),
 the Gaussian(R) 94 system (copyright 1995, Gaussian, Inc.),
 the Gaussian 92(TM) system (copyright 1992, Gaussian, Inc.),
 the Gaussian 90(TM) system (copyright 1990, Gaussian, Inc.),
 the Gaussian 88(TM) system (copyright 1988, Gaussian, Inc.),
 the Gaussian 86(TM) system (copyright 1986, Carnegie Mellon
 University), and the Gaussian 82(TM) system (copyright 1983,
 Carnegie Mellon University). Gaussian is a federally registered
 trademark of Gaussian, Inc.
  
 This software contains proprietary and confidential information,
 including trade secrets, belonging to Gaussian, Inc.
  
 This software is provided under written license and may be
 used, copied, transmitted, or stored only in accord with that
 written license.
  
 The following legend is applicable only to US Government
 contracts under FAR:
  
                    RESTRICTED RIGHTS LEGEND
  
 Use, reproduction and disclosure by the US Government is
 subject to restrictions as set forth in subparagraphs (a)
 and (c) of the Commercial Computer Software - Restricted
 Rights clause in FAR 52.227-19.
  
 Gaussian, Inc.
 340 Quinnipiac St., Bldg. 40, Wallingford CT 06492
  
  
 ---------------------------------------------------------------
 Warning -- This program may not be used in any manner that
 competes with the business of Gaussian, Inc. or will provide
 assistance to any competitor of Gaussian, Inc.  The licensee
 of this program is prohibited from giving any competitor of
 Gaussian, Inc. access to this program.  By using this program,
 the user acknowledges that Gaussian, Inc. is engaged in the
 business of creating and licensing software in the field of
 computational chemistry and represents and warrants to the
 licensee that it is not a competitor of Gaussian, Inc. and that
 it will not use this program in any manner prohibited above.
 ---------------------------------------------------------------
  

 Cite this work as:
 Gaussian 09, Revision D.01,
 M. J. Frisch, G. W. Trucks, H. B. Schlegel, G. E. Scuseria, 
 M. A. Robb, J. R. Cheeseman, G. Scalmani, V. Barone, B. Mennucci, 
 G. A. Petersson, H. Nakatsuji, M. Caricato, X. Li, H. P. Hratchian, 
 A. F. Izmaylov, J. Bloino, G. Zheng, J. L. Sonnenberg, M. Hada, 
 M. Ehara, K. Toyota, R. Fukuda, J. Hasegawa, M. Ishida, T. Nakajima, 
 Y. Honda, O. Kitao, H. Nakai, T. Vreven, J. A. Montgomery, Jr., 
 J. E. Peralta, F. Ogliaro, M. Bearpark, J. J. Heyd, E. Brothers, 
 K. N. Kudin, V. N. Staroverov, T. Keith, R. Kobayashi, J. Normand, 
 K. Raghavachari, A. Rendell, J. C. Burant, S. S. Iyengar, J. Tomasi, 
 M. Cossi, N. Rega, J. M. Millam, M. Klene, J. E. Knox, J. B. Cross, 
 V. Bakken, C. Adamo, J. Jaramillo, R. Gomperts, R. E. Stratmann, 
 O. Yazyev, A. J. Austin, R. Cammi, C. Pomelli, J. W. Ochterski, 
 R. L. Martin, K. Morokuma, V. G. Zakrzewski, G. A. Voth, 
 P. Salvador, J. J. Dannenberg, S. Dapprich, A. D. Daniels, 
 O. Farkas, J. B. Foresman, J. V. Ortiz, J. Cioslowski, 
 and D. J. Fox, Gaussian, Inc., Wallingford CT, 2013.
 
 ******************************************
 Gaussian 09:  ES64L-G09RevD.01 24-Apr-2013
                16-Feb-2021 
 ******************************************
 %nprocshared=1
 Will use up to    1 processors via shared memory.
 ----------------------------------------------------------------------
 #P upm6 scf=qc opt(calcall, ts, noeigentest, cartesian,maxcycle=100) N
 oSymm, guess=mix
 ----------------------------------------------------------------------
 1/5=1,6=100,10=4,11=1,14=-1,18=10,26=1,38=1/1,3;
 2/12=2,15=1,17=6,18=5,29=2,40=1/2;
 3/5=2,16=1,25=1,41=3900000,71=2,116=2,140=1/1,2,3;
 4/13=-1,35=1/1;
 5/5=2,8=3,35=1,38=5/8;
 8/6=4,10=90,11=11/1;
 11/6=1,8=1,9=11,15=111,16=1,31=1/1,2,10;
 10/6=1,31=1/2;
 6/7=2,8=2,9=2,10=2,18=1,28=1/1;
 7/7=1,10=1,25=1,30=1/1,2,3,16;
 1/5=1,6=100,10=4,11=1,14=-1,18=10,26=1/3(3);
 2/15=1,29=1/2;
 7/7=1,8=1,9=1,25=1,30=1,44=-1/16;
 99/12=1/99;
 2/15=1,29=1/2;
 3/5=2,16=1,25=1,41=3900000,71=2,116=2,135=20,140=1/1,2,3;
 4/5=5,16=3,35=1/1;
 5/5=2,8=3,35=1,38=5/8;
 8/6=4,10=90,11=11/1;
 11/6=1,8=1,9=11,15=111,16=1,31=1/1,2,10;
 10/6=1,31=1/2;
 7/7=1,10=1,25=1,30=1/1,2,3,16;
 1/5=1,6=100,10=4,11=1,14=-1,18=10,26=1/3(-8);
 2/15=1,29=1/2;
 6/7=2,8=2,9=2,10=2,18=1,19=2,28=1/1;
 7/7=1,8=1,9=1,25=1,30=1,44=-1/16;
 99/12=1/99;
 Leave Link    1 at Tue Feb 16 04:14:11 2021, MaxMem=           0 cpu:         0.0
 (Enter /cm/shared/apps/Gaussian09/g09/l101.exe)
 ------------------------------
 Gaussian input prepared by ASE
 ------------------------------
 Symbolic Z-matrix:
 Charge =  0 Multiplicity = 1
 C                     5.1124   -4.36336   0.72335 
 C                     6.4485   -4.60281   0.008 
 C                     6.47315  -5.64762  -1.059 
 C                     5.91164  -5.54598  -2.32396 
 C                     4.43887  -3.78673   3.13512 
 C                     5.35373  -3.49603   1.96805 
 H                     4.37221  -3.88802   0.05585 
 H                     4.64818  -5.31786   1.02575 
 H                     6.79761  -3.64082  -0.42118 
 H                     7.21601  -4.86984   0.77194 
 H                     7.41554  -6.25879  -1.01695 
 H                     6.17194  -7.08886  -1.02182 
 C                     5.26413  -4.39946  -2.97934 
 H                     4.7409   -3.29521   4.07695 
 H                     6.40185  -3.62118   2.32162 
 H                     5.26211  -2.42716   1.69858 
 H                     4.53071  -3.90276  -2.32246 
 H                     4.75477  -4.63834  -3.92297 
 H                     6.02241  -3.63273  -3.19846 
 O                     3.46969  -4.50473   3.08346 
 O                     6.48149  -7.71103  -2.31166 
 O                     5.88631  -6.70938  -3.04929 
 
 NAtoms=     22 NQM=       22 NQMF=       0 NMMI=      0 NMMIF=      0
                NMic=       0 NMicF=      0.
                    Isotopes and Nuclear Properties:
 (Nuclear quadrupole moments (NQMom) in fm**2, nuclear magnetic moments (NMagM)
  in nuclear magnetons)

  Atom         1           2           3           4           5           6           7           8           9          10
 IAtWgt=          12          12          12          12          12          12           1           1           1           1
 AtmWgt=  12.0000000  12.0000000  12.0000000  12.0000000  12.0000000  12.0000000   1.0078250   1.0078250   1.0078250   1.0078250
 NucSpn=           0           0           0           0           0           0           1           1           1           1
 AtZEff=   0.0000000   0.0000000   0.0000000   0.0000000   0.0000000   0.0000000   0.0000000   0.0000000   0.0000000   0.0000000
 NQMom=    0.0000000   0.0000000   0.0000000   0.0000000   0.0000000   0.0000000   0.0000000   0.0000000   0.0000000   0.0000000
 NMagM=    0.0000000   0.0000000   0.0000000   0.0000000   0.0000000   0.0000000   2.7928460   2.7928460   2.7928460   2.7928460
 AtZNuc=   6.0000000   6.0000000   6.0000000   6.0000000   6.0000000   6.0000000   1.0000000   1.0000000   1.0000000   1.0000000

  Atom        11          12          13          14          15          16          17          18          19          20
 IAtWgt=           1           1          12           1           1           1           1           1           1          16
 AtmWgt=   1.0078250   1.0078250  12.0000000   1.0078250   1.0078250   1.0078250   1.0078250   1.0078250   1.0078250  15.9949146
 NucSpn=           1           1           0           1           1           1           1           1           1           0
 AtZEff=   0.0000000   0.0000000   0.0000000   0.0000000   0.0000000   0.0000000   0.0000000   0.0000000   0.0000000   0.0000000
 NQMom=    0.0000000   0.0000000   0.0000000   0.0000000   0.0000000   0.0000000   0.0000000   0.0000000   0.0000000   0.0000000
 NMagM=    2.7928460   2.7928460   0.0000000   2.7928460   2.7928460   2.7928460   2.7928460   2.7928460   2.7928460   0.0000000
 AtZNuc=   1.0000000   1.0000000   6.0000000   1.0000000   1.0000000   1.0000000   1.0000000   1.0000000   1.0000000   8.0000000

  Atom        21          22
 IAtWgt=          16          16
 AtmWgt=  15.9949146  15.9949146
 NucSpn=           0           0
 AtZEff=   0.0000000   0.0000000
 NQMom=    0.0000000   0.0000000
 NMagM=    0.0000000   0.0000000
 AtZNuc=   8.0000000   8.0000000
 Leave Link  101 at Tue Feb 16 04:14:11 2021, MaxMem=    33554432 cpu:         0.1
 (Enter /cm/shared/apps/Gaussian09/g09/l103.exe)

 GradGradGradGradGradGradGradGradGradGradGradGradGradGradGradGradGradGrad
 Berny optimization.
 Initialization pass.
 No Z-matrix variables, so optimization will use Cartesian coordinates.
 Trust Radius=3.00D-01 FncErr=1.00D-07 GrdErr=1.00D-07
 Number of steps in this run=    100 maximum allowed number of steps=    132.
 Search for a saddle point of order  1.
 GradGradGradGradGradGradGradGradGradGradGradGradGradGradGradGradGradGrad

 Leave Link  103 at Tue Feb 16 04:14:11 2021, MaxMem=    33554432 cpu:         0.0
 (Enter /cm/shared/apps/Gaussian09/g09/l202.exe)
 ---------------------------------------------------------------------------------------------------
                            Z-MATRIX (ANGSTROMS AND DEGREES)
   CD    Cent   Atom    N1       Length/X        N2       Alpha/Y        N3        Beta/Z          J
 ---------------------------------------------------------------------------------------------------
      1      1  C        0   5.112399         -4.363359          0.723353
      2      2  C        0   6.448497         -4.602809          0.007997
      3      3  C        0   6.473150         -5.647615         -1.059004
      4      4  C        0   5.911643         -5.545980         -2.323965
      5      5  C        0   4.438866         -3.786729          3.135115
      6      6  C        0   5.353727         -3.496030          1.968046
      7      7  H        0   4.372213         -3.888020          0.055854
      8      8  H        0   4.648179         -5.317856          1.025747
      9      9  H        0   6.797611         -3.640823         -0.421185
     10     10  H        0   7.216012         -4.869844          0.771944
     11     11  H        0   7.415537         -6.258791         -1.016955
     12     12  H        0   6.171940         -7.088855         -1.021817
     13     13  C        0   5.264127         -4.399465         -2.979342
     14     14  H        0   4.740903         -3.295208          4.076951
     15     15  H        0   6.401849         -3.621176          2.321623
     16     16  H        0   5.262111         -2.427165          1.698579
     17     17  H        0   4.530712         -3.902761         -2.322458
     18     18  H        0   4.754775         -4.638344         -3.922969
     19     19  H        0   6.022408         -3.632734         -3.198457
     20     20  O        0   3.469694         -4.504732          3.083456
     21     21  O        0   6.481488         -7.711026         -2.311660
     22     22  O        0   5.886314         -6.709384         -3.049290
 ---------------------------------------------------------------------------------------------------
                         Z-Matrix orientation:                         
 ---------------------------------------------------------------------
 Center     Atomic      Atomic             Coordinates (Angstroms)
 Number     Number       Type             X           Y           Z
 ---------------------------------------------------------------------
      1          6           0        5.112399   -4.363359    0.723353
      2          6           0        6.448497   -4.602809    0.007997
      3          6           0        6.473150   -5.647615   -1.059004
      4          6           0        5.911643   -5.545980   -2.323965
      5          6           0        4.438866   -3.786729    3.135115
      6          6           0        5.353727   -3.496030    1.968046
      7          1           0        4.372213   -3.888020    0.055854
      8          1           0        4.648179   -5.317856    1.025747
      9          1           0        6.797611   -3.640823   -0.421185
     10          1           0        7.216012   -4.869844    0.771944
     11          1           0        7.415537   -6.258791   -1.016955
     12          1           0        6.171940   -7.088855   -1.021817
     13          6           0        5.264127   -4.399465   -2.979342
     14          1           0        4.740903   -3.295208    4.076951
     15          1           0        6.401849   -3.621176    2.321623
     16          1           0        5.262111   -2.427165    1.698579
     17          1           0        4.530712   -3.902761   -2.322458
     18          1           0        4.754775   -4.638344   -3.922969
     19          1           0        6.022408   -3.632734   -3.198457
     20          8           0        3.469694   -4.504732    3.083456
     21          8           0        6.481488   -7.711026   -2.311660
     22          8           0        5.886314   -6.709384   -3.049290
 ---------------------------------------------------------------------
                    Distance matrix (angstroms):
                    1          2          3          4          5
     1  C    0.000000
     2  C    1.534350   0.000000
     3  C    2.584135   1.493559   0.000000
     4  C    3.365046   2.572126   1.387712   0.000000
     5  C    2.569581   3.805715   5.019148   5.921621   0.000000
     6  C    1.536151   2.503053   3.878848   4.789042   1.511134
     7  H    1.104254   2.196398   2.958550   3.283628   3.081648
     8  H    1.103633   2.188207   2.790241   3.587332   2.614880
     9  H    2.161474   1.109728   2.130564   2.834632   4.269923
    10  H    2.164273   1.115348   2.123474   3.426834   3.803980
    11  H    3.453372   2.174389   1.124010   2.116146   5.675504
    12  H    3.405374   2.705074   1.472849   2.035635   5.584592
    13  C    3.705979   3.219981   2.589848   1.470814   6.200249
    14  H    3.539149   4.602400   5.908683   6.885371   1.104479
    15  H    2.183572   2.513692   3.942104   5.052392   2.131309
    16  H    2.173092   2.999834   4.409329   5.131254   2.142378
    17  H    3.134881   3.098223   2.900672   2.146426   5.459579
    18  H    4.668171   4.280473   3.489088   2.172317   7.116291
    19  H    4.091764   3.376973   2.973243   2.106542   6.530349
    20  O    2.878984   4.282678   5.242796   6.023912   1.207266
    21  O    4.721502   3.878519   2.413893   2.238816   7.017106
    22  O    4.509503   3.755092   2.330873   1.371221   6.991701
                    6          7          8          9         10
     6  C    0.000000
     7  H    2.184835   0.000000
     8  H    2.169049   1.749652   0.000000
     9  H    2.795387   2.484196   3.086440   0.000000
    10  H    2.605021   3.092565   2.618950   1.763266   0.000000
    11  H    4.560059   4.004159   3.565986   2.755092   2.273574
    12  H    4.745224   3.826975   3.106574   3.555440   3.038367
    13  C    5.029997   3.204606   4.154945   3.077545   4.254793
    14  H    2.205304   4.081248   3.661905   4.958097   4.419131
    15  H    1.113211   3.053578   2.762857   2.771283   2.150242
    16  H    1.106109   2.371616   3.030794   2.885156   3.262371
    17  H    4.387620   2.383633   3.636862   2.970233   4.209681
    18  H    6.030562   4.066985   4.996287   4.175012   5.305986
    19  H    5.211389   3.657711   4.751004   2.883444   4.326571
    20  O    2.410643   3.218890   2.506824   4.909570   4.417160
    21  O    6.111785   4.966843   4.497396   4.498932   4.256812
    22  O    5.981885   4.460326   4.480542   4.141675   4.444528
                   11         12         13         14         15
    11  H    0.000000
    12  H    1.495180   0.000000
    13  C    3.454942   3.448022   0.000000
    14  H    6.471813   6.514373   7.161314   0.000000
    15  H    4.373863   4.822474   5.477260   2.438478   0.000000
    16  H    5.166500   5.473546   5.076704   2.584920   1.764326
    17  H    3.946826   3.812676   1.102773   6.431620   5.014772
    18  H    4.260331   4.053399   1.098606   8.111900   6.537768
    19  H    3.687267   4.087163   1.100399   7.395117   5.533118
    20  O    5.954811   5.552756   6.323653   2.016420   3.155724
    21  O    2.158170   1.465132   3.590850   7.958859   6.180658
    22  O    2.583011   2.082361   2.393269   7.984477   6.216873
                   16         17         18         19         20
    16  H    0.000000
    17  H    4.345235   0.000000
    18  H    6.062055   1.775647   0.000000
    19  H    5.100237   1.750842   1.772869   0.000000
    20  O    3.073586   5.541844   7.124554   6.836605   0.000000
    21  O    6.744486   4.278846   3.875465   4.198765   6.961214
    22  O    6.424118   3.200480   2.516525   3.083269   6.950620
                   21         22
    21  O    0.000000
    22  O    1.378991   0.000000
 Symmetry turned off by external request.
 Stoichiometry    C7H12O3
 Framework group  C1[X(C7H12O3)]
 Deg. of freedom    60
 Full point group                 C1      NOp   1
 Rotational constants (GHZ):      2.6652277      0.4763157      0.4547863
 Leave Link  202 at Tue Feb 16 04:14:11 2021, MaxMem=    33554432 cpu:         0.0
 (Enter /cm/shared/apps/Gaussian09/g09/l301.exe)
 Standard basis: VSTO-6G (5D, 7F)
 Ernie: Thresh=  0.10000D-02 Tol=  0.10000D-05 Strict=F.
  NNHCO=     0 NNPyr=     0 NCTC=     0               EPep=         0.000000000
    EC=       252.025173294  ECS=         4.113702790   EG=         0.367754016
   EHC=         0.000987900  EAt=       -66.250074573  AtH=         3.187411664
 EPDDG=         0.000000000  ECC=       256.507618001 EAtT=        69.437486237
    52 basis functions,   312 primitive gaussians,    52 cartesian basis functions
    29 alpha electrons       29 beta electrons
       nuclear repulsion energy       325.9451042381 Hartrees.
 IExCor=    0 DFT=F Ex=HF Corr=None ExCW=0 ScaHFX=  1.000000
 ScaDFX=  1.000000  1.000000  1.000000  1.000000 ScalE2=  1.000000  1.000000
 IRadAn=      0 IRanWt=     -1 IRanGd=            0 ICorTp=0 IEmpDi=  4
 Integral buffers will be    131072 words long.
 Regular integral format.
 Two-electron integral symmetry is turned off.
 Leave Link  301 at Tue Feb 16 04:14:11 2021, MaxMem=    33554432 cpu:         0.0
 (Enter /cm/shared/apps/Gaussian09/g09/l302.exe)
 Do NDO integrals.
 NPDir=0 NMtPBC=     1 NCelOv=     1 NCel=       1 NClECP=     1 NCelD=      1
         NCelK=      1 NCelE2=     1 NClLst=     1 CellRange=     0.0.
 One-electron integrals computed using PRISM.
 NBasis=    52 RedAO= F EigKep=  0.00D+00  NBF=    52
 NBsUse=    52 1.00D-04 EigRej=  0.00D+00 NBFU=    52
 Leave Link  302 at Tue Feb 16 04:14:11 2021, MaxMem=    33554432 cpu:         0.0
 (Enter /cm/shared/apps/Gaussian09/g09/l303.exe)
 DipDrv:  MaxL=1.
 Leave Link  303 at Tue Feb 16 04:14:11 2021, MaxMem=    33554432 cpu:         0.0
 (Enter /cm/shared/apps/Gaussian09/g09/l401.exe)
 Simple Huckel Guess.
 JPrj=0 DoOrth=F DoCkMO=T.
 Mixing orbitals, IMix= 1 IMixAn=  0 NRI=1 NE=   29 Coef=  7.07106781D-01  7.07106781D-01
 Mixing orbitals, IMix= 1 IMixAn=  0 NRI=1 NE=   29 Coef= -7.07106781D-01  7.07106781D-01
 Initial guess <Sx>= 0.0000 <Sy>= 0.0000 <Sz>= 0.0000 <S**2>= 1.0000 S= 0.6180
 Leave Link  401 at Tue Feb 16 04:14:11 2021, MaxMem=    33554432 cpu:         0.0
 (Enter /cm/shared/apps/Gaussian09/g09/l508.exe)
 Direct SCF.
 Tight linear equation convergence will be used.
 UPM6 wavefunction.
 Quadratic Convergence SCF Method.
 Line search only if initial step raises energy.
 Two-electron integral symmetry not used.
 ReadGW:  IGet=1 IStart=       59293 Next=       59293 LGW=           0.
 Keep J ints in memory in canonical form, NReq=905730.
 FoFCou: FMM=F IPFlag=           0 FMFlag=           0 FMFlg1=           0
         NFxFlg=           0 DoJE=F BraDBF=F KetDBF=F FulRan=T
         wScrn=  0.000000 ICntrl=     600 IOpCl=  2 I1Cent=           0 NGrid=           0
         NMat0=    1 NMatS0=    112 NMatT0=    0 NMatD0=    1 NMtDS0=    0 NMtDT0=    0
 Symmetry not used in FoFCou.
 Iteration   1 EE= 0.843437919249936                                    Grad=6.065D-01 Max rot=   13.5292 deg.
 Gradient too large for Newton-Raphson -- use scaled steepest descent instead.
 Alpha Gap=     0.085 HL deriv= 2.32D+00
  Beta Gap=     0.108 HL deriv= 2.20D+00
     ILin= 1 X=0.000D+00 Y= 8.434379192499D-01 DE= 0.00D+00 F= -2.89D+00
     ILin= 2 X=3.000D-01 Y= 3.080987715596D-01 DE=-5.35D-01 F= -7.02D-01
     ILin= 3 X=4.000D-01 Y= 2.677066702668D-01 DE=-5.76D-01 F= -1.07D-01
     ILin= 4 X=6.000D-01 Y= 3.787087034534D-01 DE=-4.65D-01 F=  1.26D+00
     An  expanding polynomial of degree  4 produced  0.4117
     Minimum is close to point  3 DX=  1.17D-02 DF= -4.44D-04 DXR=  2.85D-02 DFR=  7.71D-04 which will be used.
 Iteration   2 EE= 0.267706670266762     Delta-E=       -0.575731248983 Grad=3.692D-01 Max rot=    3.5245 deg.
 Gradient too large for Newton-Raphson -- use scaled steepest descent instead.
 Alpha Gap=     0.338 HL deriv= 1.13D-01
  Beta Gap=     0.344 HL deriv= 9.64D-02
     ILin= 1 X=0.000D+00 Y= 2.677066702668D-01 DE= 0.00D+00 F= -3.49D-01
     ILin= 2 X=4.000D-01 Y= 1.446926397131D-01 DE=-1.23D-01 F= -2.64D-01
     ILin= 3 X=5.000D-01 Y= 1.193756361912D-01 DE=-1.48D-01 F= -2.42D-01
     ILin= 4 X=8.000D-01 Y= 5.736055014950D-02 DE=-2.10D-01 F= -1.71D-01
     ILin= 5 X=1.300D+00 Y= 3.620856536941D-03 DE=-2.64D-01 F= -4.22D-02
     ILin= 6 X=2.000D+00 Y= 4.220800154371D-02 DE=-2.25D-01 F=  1.55D-01
     An  expanding polynomial of degree  6 produced  1.4549
 Iteration   3 EE= 0.344395786953555E-03 Delta-E=       -0.267362274480 Grad=8.994D-02 Max rot=    0.8931 deg.
 Gradient too large for Newton-Raphson -- use scaled steepest descent instead.
 Alpha Gap=     0.361 HL deriv= 1.93D-02
  Beta Gap=     0.359 HL deriv= 2.03D-02
     ILin= 1 X=0.000D+00 Y= 3.443957869536D-04 DE= 0.00D+00 F= -2.25D-02
     ILin= 2 X=8.000D-01 Y=-1.268024726880D-02 DE=-1.30D-02 F= -1.00D-02
     Reject lnstep minimum 1.480D+00 FVal=-1.897997288093D-02 Lims=  0.00D+00  8.00D-01
     ILin= 3 X=1.500D+00 Y=-1.586080704379D-02 DE=-1.62D-02 F=  9.80D-04
     Accept linear search using points  2 and  3.
     An  expanding polynomial of degree  3 produced  1.3630
 Iteration   4 EE=-0.158466177999799E-01 Delta-E=       -0.016191013587 Grad=3.171D-02 Max rot=    0.3066 deg.
 Gradient too large for Newton-Raphson -- use scaled steepest descent instead.
 Alpha Gap=     0.367 HL deriv= 3.02D-03
  Beta Gap=     0.366 HL deriv= 2.08D-03
     ILin= 1 X=0.000D+00 Y=-1.584661779998D-02 DE= 0.00D+00 F= -3.07D-03
     ILin= 2 X=1.400D+00 Y=-1.819521436323D-02 DE=-2.35D-03 F= -2.78D-04
     Reject lnstep minimum 1.447D+00 FVal=-1.819988394005D-02 Lims=  0.00D+00  1.40D+00
     ILin= 3 X=2.800D+00 Y=-1.660372330275D-02 DE=-7.57D-04 F=  2.56D-03
     An  expanding polynomial of degree  3 produced  1.5345
     Minimum is close to point  2 DX=  1.35D-01 DF= -1.82D-05 DXR=  8.77D-02 DFR=  7.74D-03 which will be used.
 Iteration   5 EE=-0.181952143632316E-01 Delta-E=       -0.002348596563 Grad=1.471D-02 Max rot=    0.1588 deg.
 Gradient too large for Newton-Raphson -- use scaled steepest descent instead.
 Alpha Gap=     0.368 HL deriv= 2.76D-03
  Beta Gap=     0.367 HL deriv= 3.16D-03
     ILin= 1 X=0.000D+00 Y=-1.819521436323D-02 DE= 0.00D+00 F= -6.96D-04
     ILin= 2 X=1.400D+00 Y=-1.877812298557D-02 DE=-5.83D-04 F= -1.37D-04
     ILin= 3 X=2.900D+00 Y=-1.853716701703D-02 DE=-3.42D-04 F=  4.57D-04
     An  expanding polynomial of degree  3 produced  1.7463
 Iteration   6 EE=-0.188017273405876E-01 Delta-E=       -0.000606512977 Grad=9.711D-03 Max rot=    0.0982 deg.
 QCNR:  CnvC1=3.65D-09 CnvC2=3.65D-08
 LinEq1:  Iter=  0 NonCon=     1 RMS=4.53D-04 Max=6.18D-03 NDo=     1
 AX will form     1 AO Fock derivatives at one time.
 LinEq1:  Iter=  1 NonCon=     1 RMS=1.38D-04 Max=1.60D-03 NDo=     1
 LinEq1:  Iter=  2 NonCon=     1 RMS=2.47D-05 Max=3.68D-04 NDo=     1
 LinEq1:  Iter=  3 NonCon=     1 RMS=6.27D-06 Max=6.20D-05 NDo=     1
 LinEq1:  Iter=  4 NonCon=     1 RMS=9.48D-07 Max=1.29D-05 NDo=     1
 LinEq1:  Iter=  5 NonCon=     1 RMS=1.95D-07 Max=2.81D-06 NDo=     1
 LinEq1:  Iter=  6 NonCon=     1 RMS=4.70D-08 Max=4.67D-07 NDo=     1
 LinEq1:  Iter=  7 NonCon=     1 RMS=1.07D-08 Max=1.27D-07 NDo=     1
 LinEq1:  Iter=  8 NonCon=     0 RMS=2.16D-09 Max=3.27D-08 NDo=     1
 Linear equations converged to 3.652D-09 3.652D-08 after     8 iterations.
 Angle between quadratic step and gradient=  49.66 degrees.
     ILin= 1 X=0.000D+00 Y=-1.880172734059D-02 DE= 0.00D+00 F= -6.51D-04
     ILin= 2 X=1.000D+00 Y=-1.912592303262D-02 DE=-3.24D-04 F=  4.44D-06
     Accept linear search using points  1 and  2.
     An  expanding polynomial of degree  2 produced  0.9933
     Minimum is close to point  2 DX= -6.73D-03 DF= -1.49D-08 DXR=  6.77D-03 DFR=  4.61D-05 which will be used.
 Iteration   7 EE=-0.191259230326182E-01 Delta-E=       -0.000324195692 Grad=1.283D-04 Max rot=    0.0017 deg.
 QCNR:  CnvC1=1.28D-09 CnvC2=1.28D-08
 LinEq1:  Iter=  0 NonCon=     1 RMS=6.12D-06 Max=8.13D-05 NDo=     1
 LinEq1:  Iter=  1 NonCon=     1 RMS=1.86D-06 Max=3.41D-05 NDo=     1
 LinEq1:  Iter=  2 NonCon=     1 RMS=3.49D-07 Max=4.62D-06 NDo=     1
 LinEq1:  Iter=  3 NonCon=     1 RMS=7.08D-08 Max=8.88D-07 NDo=     1
 LinEq1:  Iter=  4 NonCon=     1 RMS=1.56D-08 Max=1.94D-07 NDo=     1
 LinEq1:  Iter=  5 NonCon=     1 RMS=4.29D-09 Max=5.53D-08 NDo=     1
 LinEq1:  Iter=  6 NonCon=     1 RMS=1.24D-09 Max=2.08D-08 NDo=     1
 LinEq1:  Iter=  7 NonCon=     0 RMS=2.70D-10 Max=3.19D-09 NDo=     1
 Linear equations converged to 1.283D-09 1.283D-08 after     7 iterations.
 Angle between quadratic step and gradient=  50.67 degrees.
     ILin= 1 X=0.000D+00 Y=-1.912592303262D-02 DE= 0.00D+00 F= -9.94D-08
     ILin= 2 X=1.000D+00 Y=-1.912597273986D-02 DE=-4.97D-08 F=  1.41D-11
     Accept linear search using points  1 and  2.
     An  expanding polynomial of degree  2 produced  0.9999
     Minimum is close to point  2 DX= -1.42D-04 DF= -1.00D-15 DXR=  1.42D-04 DFR=  2.02D-08 which will be used.
 Iteration   8 EE=-0.191259727398574E-01 Delta-E=       -0.000000049707 Grad=3.564D-06 Max rot=    0.0000 deg.
 QCNR:  CnvC1=3.56D-11 CnvC2=3.56D-10
 LinEq1:  Iter=  0 NonCon=     1 RMS=1.46D-07 Max=1.75D-06 NDo=     1
 LinEq1:  Iter=  1 NonCon=     1 RMS=4.57D-08 Max=6.53D-07 NDo=     1
 LinEq1:  Iter=  2 NonCon=     1 RMS=1.25D-08 Max=1.79D-07 NDo=     1
 LinEq1:  Iter=  3 NonCon=     1 RMS=3.11D-09 Max=3.50D-08 NDo=     1
 LinEq1:  Iter=  4 NonCon=     1 RMS=7.09D-10 Max=9.42D-09 NDo=     1
 LinEq1:  Iter=  5 NonCon=     1 RMS=1.64D-10 Max=2.66D-09 NDo=     1
 LinEq1:  Iter=  6 NonCon=     1 RMS=3.52D-11 Max=6.01D-10 NDo=     1
 LinEq1:  Iter=  7 NonCon=     0 RMS=9.53D-12 Max=1.28D-10 NDo=     1
 Linear equations converged to 3.564D-11 3.564D-10 after     7 iterations.
 Angle between quadratic step and gradient=  62.79 degrees.
     ILin= 1 X=0.000D+00 Y=-1.912597273986D-02 DE= 0.00D+00 F= -9.84D-11
     ILin= 2 X=1.000D+00 Y=-1.912597278897D-02 DE=-4.91D-11
 Iteration   9 EE=-0.191259727889701E-01 Delta-E=       -0.000000000049 Grad=1.551D-07 Max rot=    0.0000 deg.
 Rotation gradient small -- convergence achieved.
 SCF Done:  E(UPM6) = -0.191259727890E-01 a.u. after    9 cycles
            Convg  =    0.1551D-06                    43 Fock formations.
              S**2 =  0.0000                  -V/T =  0.9994
 <Sx>= 0.0000 <Sy>= 0.0000 <Sz>= 0.0000 <S**2>= 0.0000 S= 0.0000
 <L.S>= 0.000000000000E+00
 Annihilation of the first spin contaminant:
 S**2 before annihilation     0.0000,   after     0.0000
 Leave Link  508 at Tue Feb 16 04:14:11 2021, MaxMem=    33554432 cpu:         0.1
 (Enter /cm/shared/apps/Gaussian09/g09/l801.exe)
 Range of M.O.s used for correlation:     1    52
 NBasis=    52 NAE=    29 NBE=    29 NFC=     0 NFV=     0
 NROrb=     52 NOA=    29 NOB=    29 NVA=    23 NVB=    23
 Leave Link  801 at Tue Feb 16 04:14:11 2021, MaxMem=    33554432 cpu:         0.0
 (Enter /cm/shared/apps/Gaussian09/g09/l1101.exe)
 Using compressed storage, NAtomX=    22.
 Will process     23 centers per pass.
 Leave Link 1101 at Tue Feb 16 04:14:11 2021, MaxMem=    33554432 cpu:         0.1
 (Enter /cm/shared/apps/Gaussian09/g09/l1102.exe)
 Symmetrizing basis deriv contribution to polar:
 IMax=3 JMax=2 DiffMx= 0.00D+00
 Leave Link 1102 at Tue Feb 16 04:14:11 2021, MaxMem=    33554432 cpu:         0.0
 (Enter /cm/shared/apps/Gaussian09/g09/l1110.exe)
 Forming Gx(P) for the SCF density, NAtomX=    22.
 Integral derivatives from FoFJK, PRISM(SPDF).
 Do as many integral derivatives as possible in FoFJK.
 G2DrvN: MDV=      33495261.
 G2DrvN: will do    23 centers at a time, making    1 passes.
 Calling FoFCou, ICntrl=  3107 FMM=F I1Cent=   0 AccDes= 0.00D+00.
 FoFJK:  IHMeth=40 ICntrl=    3107 DoSepK=F KAlg= 0 I1Cent=   0 FoldK=F
 IRaf=         0 NMat=   1 IRICut=       1 DoRegI=T DoRafI=F ISym2E= 0.
 FoFCou: FMM=F IPFlag=           0 FMFlag=      100000 FMFlg1=           0
         NFxFlg=           0 DoJE=F BraDBF=F KetDBF=F FulRan=T
         wScrn=  0.000000 ICntrl=    3107 IOpCl=  1 I1Cent=           0 NGrid=           0
         NMat0=    1 NMatS0=      1 NMatT0=    0 NMatD0=    1 NMtDS0=    0 NMtDT0=    0
 Symmetry not used in FoFCou.
 End of G2Drv F.D. properties file   721 does not exist.
 End of G2Drv F.D. properties file   722 does not exist.
 End of G2Drv F.D. properties file   788 does not exist.
 Leave Link 1110 at Tue Feb 16 04:14:11 2021, MaxMem=    33554432 cpu:         0.0
 (Enter /cm/shared/apps/Gaussian09/g09/l1002.exe)
 Minotr:  UHF open shell wavefunction.
          IDoAtm=1111111111111111111111
          Direct CPHF calculation.
          Differentiating once with respect to electric field.
                with respect to dipole field.
          Differentiating once with respect to nuclear coordinates.
          Electric field/nuclear overlap derivatives assumed to be zero.
          Requested convergence is 1.0D-08 RMS, and 1.0D-07 maximum.
          NewPWx=T KeepS1=F KeepF1=F KeepIn=T MapXYZ=F SortEE=F KeepMc=T.
          MDV=      33495213 using IRadAn=       2.
 Keep J ints in memory in canonical form, NReq=888555.
 FoFCou: FMM=F IPFlag=           0 FMFlag=           0 FMFlg1=           0
         NFxFlg=           0 DoJE=F BraDBF=F KetDBF=F FulRan=T
         wScrn=  0.000000 ICntrl=     600 IOpCl=  2 I1Cent=           0 NGrid=           0
         NMat0=    1 NMatS0=    112 NMatT0=    0 NMatD0=    1 NMtDS0=    0 NMtDT0=    0
 Symmetry not used in FoFCou.
          Solving linear equations separately, MaxMat=       0.
          There are    69 degrees of freedom in the 1st order CPHF.  IDoFFX=5 NUNeed=    69.
 LinEq1:  Iter=  0 NonCon=    69 RMS=2.06D-01 Max=2.16D+00 NDo=    69
 AX will form    69 AO Fock derivatives at one time.
 LinEq1:  Iter=  1 NonCon=    69 RMS=3.57D-02 Max=3.03D-01 NDo=    69
 LinEq1:  Iter=  2 NonCon=    69 RMS=6.92D-03 Max=8.69D-02 NDo=    69
 LinEq1:  Iter=  3 NonCon=    69 RMS=1.10D-03 Max=9.64D-03 NDo=    69
 LinEq1:  Iter=  4 NonCon=    69 RMS=1.71D-04 Max=1.30D-03 NDo=    69
 LinEq1:  Iter=  5 NonCon=    69 RMS=2.70D-05 Max=2.66D-04 NDo=    69
 LinEq1:  Iter=  6 NonCon=    69 RMS=5.30D-06 Max=3.89D-05 NDo=    69
 LinEq1:  Iter=  7 NonCon=    35 RMS=1.03D-06 Max=9.49D-06 NDo=    69
 LinEq1:  Iter=  8 NonCon=     5 RMS=1.50D-07 Max=1.03D-06 NDo=    69
 LinEq1:  Iter=  9 NonCon=     3 RMS=2.13D-08 Max=1.91D-07 NDo=    69
 LinEq1:  Iter= 10 NonCon=     0 RMS=3.81D-09 Max=3.10D-08 NDo=    69
 Linear equations converged to 1.000D-08 1.000D-07 after    10 iterations.
 FullF1:  Do perturbations    1 to     3.
 Isotropic polarizability for W=    0.000000       69.37 Bohr**3.
 End of Minotr F.D. properties file   721 does not exist.
 End of Minotr F.D. properties file   722 does not exist.
 End of Minotr F.D. properties file   788 does not exist.
 Leave Link 1002 at Tue Feb 16 04:14:12 2021, MaxMem=    33554432 cpu:         0.4
 (Enter /cm/shared/apps/Gaussian09/g09/l601.exe)
 Copying SCF densities to generalized density rwf, IOpCl= 1 IROHF=0.

 **********************************************************************

            Population analysis using the SCF density.

 **********************************************************************

 Alpha  occ. eigenvalues --   -1.17755  -1.16899  -1.07028  -1.02795  -0.99389
 Alpha  occ. eigenvalues --   -0.94068  -0.90042  -0.82055  -0.74299  -0.72101
 Alpha  occ. eigenvalues --   -0.67451  -0.63054  -0.61538  -0.60062  -0.59519
 Alpha  occ. eigenvalues --   -0.55572  -0.54953  -0.53601  -0.52682  -0.52306
 Alpha  occ. eigenvalues --   -0.50930  -0.48483  -0.47535  -0.46310  -0.43662
 Alpha  occ. eigenvalues --   -0.40981  -0.37722  -0.36739  -0.34033
 Alpha virt. eigenvalues --   -0.00368   0.00994   0.02095   0.10201   0.10903
 Alpha virt. eigenvalues --    0.11313   0.12431   0.12754   0.14647   0.15502
 Alpha virt. eigenvalues --    0.15855   0.16320   0.16962   0.17359   0.17592
 Alpha virt. eigenvalues --    0.17886   0.19334   0.19916   0.20449   0.21108
 Alpha virt. eigenvalues --    0.21308   0.22080   0.23219
  Beta  occ. eigenvalues --   -1.17755  -1.16899  -1.07028  -1.02795  -0.99389
  Beta  occ. eigenvalues --   -0.94068  -0.90042  -0.82055  -0.74299  -0.72101
  Beta  occ. eigenvalues --   -0.67451  -0.63054  -0.61538  -0.60062  -0.59519
  Beta  occ. eigenvalues --   -0.55572  -0.54953  -0.53601  -0.52682  -0.52306
  Beta  occ. eigenvalues --   -0.50930  -0.48483  -0.47535  -0.46310  -0.43662
  Beta  occ. eigenvalues --   -0.40981  -0.37722  -0.36739  -0.34033
  Beta virt. eigenvalues --   -0.00368   0.00994   0.02095   0.10201   0.10903
  Beta virt. eigenvalues --    0.11313   0.12431   0.12754   0.14647   0.15502
  Beta virt. eigenvalues --    0.15855   0.16320   0.16962   0.17359   0.17592
  Beta virt. eigenvalues --    0.17886   0.19334   0.19916   0.20449   0.21108
  Beta virt. eigenvalues --    0.21308   0.22080   0.23219
          Condensed to atoms (all electrons):
               1          2          3          4          5          6
     1  C    4.226376   0.000000   0.000000   0.000000   0.000000   0.000000
     2  C    0.000000   4.171696   0.000000   0.000000   0.000000   0.000000
     3  C    0.000000   0.000000   4.571873   0.000000   0.000000   0.000000
     4  C    0.000000   0.000000   0.000000   3.640942   0.000000   0.000000
     5  C    0.000000   0.000000   0.000000   0.000000   3.594896   0.000000
     6  C    0.000000   0.000000   0.000000   0.000000   0.000000   4.446702
     7  H    0.000000   0.000000   0.000000   0.000000   0.000000   0.000000
     8  H    0.000000   0.000000   0.000000   0.000000   0.000000   0.000000
     9  H    0.000000   0.000000   0.000000   0.000000   0.000000   0.000000
    10  H    0.000000   0.000000   0.000000   0.000000   0.000000   0.000000
    11  H    0.000000   0.000000   0.000000   0.000000   0.000000   0.000000
    12  H    0.000000   0.000000   0.000000   0.000000   0.000000   0.000000
    13  C    0.000000   0.000000   0.000000   0.000000   0.000000   0.000000
    14  H    0.000000   0.000000   0.000000   0.000000   0.000000   0.000000
    15  H    0.000000   0.000000   0.000000   0.000000   0.000000   0.000000
    16  H    0.000000   0.000000   0.000000   0.000000   0.000000   0.000000
    17  H    0.000000   0.000000   0.000000   0.000000   0.000000   0.000000
    18  H    0.000000   0.000000   0.000000   0.000000   0.000000   0.000000
    19  H    0.000000   0.000000   0.000000   0.000000   0.000000   0.000000
    20  O    0.000000   0.000000   0.000000   0.000000   0.000000   0.000000
    21  O    0.000000   0.000000   0.000000   0.000000   0.000000   0.000000
    22  O    0.000000   0.000000   0.000000   0.000000   0.000000   0.000000
               7          8          9         10         11         12
     1  C    0.000000   0.000000   0.000000   0.000000   0.000000   0.000000
     2  C    0.000000   0.000000   0.000000   0.000000   0.000000   0.000000
     3  C    0.000000   0.000000   0.000000   0.000000   0.000000   0.000000
     4  C    0.000000   0.000000   0.000000   0.000000   0.000000   0.000000
     5  C    0.000000   0.000000   0.000000   0.000000   0.000000   0.000000
     6  C    0.000000   0.000000   0.000000   0.000000   0.000000   0.000000
     7  H    0.868052   0.000000   0.000000   0.000000   0.000000   0.000000
     8  H    0.000000   0.842071   0.000000   0.000000   0.000000   0.000000
     9  H    0.000000   0.000000   0.875586   0.000000   0.000000   0.000000
    10  H    0.000000   0.000000   0.000000   0.871775   0.000000   0.000000
    11  H    0.000000   0.000000   0.000000   0.000000   0.769174   0.000000
    12  H    0.000000   0.000000   0.000000   0.000000   0.000000   0.623280
    13  C    0.000000   0.000000   0.000000   0.000000   0.000000   0.000000
    14  H    0.000000   0.000000   0.000000   0.000000   0.000000   0.000000
    15  H    0.000000   0.000000   0.000000   0.000000   0.000000   0.000000
    16  H    0.000000   0.000000   0.000000   0.000000   0.000000   0.000000
    17  H    0.000000   0.000000   0.000000   0.000000   0.000000   0.000000
    18  H    0.000000   0.000000   0.000000   0.000000   0.000000   0.000000
    19  H    0.000000   0.000000   0.000000   0.000000   0.000000   0.000000
    20  O    0.000000   0.000000   0.000000   0.000000   0.000000   0.000000
    21  O    0.000000   0.000000   0.000000   0.000000   0.000000   0.000000
    22  O    0.000000   0.000000   0.000000   0.000000   0.000000   0.000000
              13         14         15         16         17         18
     1  C    0.000000   0.000000   0.000000   0.000000   0.000000   0.000000
     2  C    0.000000   0.000000   0.000000   0.000000   0.000000   0.000000
     3  C    0.000000   0.000000   0.000000   0.000000   0.000000   0.000000
     4  C    0.000000   0.000000   0.000000   0.000000   0.000000   0.000000
     5  C    0.000000   0.000000   0.000000   0.000000   0.000000   0.000000
     6  C    0.000000   0.000000   0.000000   0.000000   0.000000   0.000000
     7  H    0.000000   0.000000   0.000000   0.000000   0.000000   0.000000
     8  H    0.000000   0.000000   0.000000   0.000000   0.000000   0.000000
     9  H    0.000000   0.000000   0.000000   0.000000   0.000000   0.000000
    10  H    0.000000   0.000000   0.000000   0.000000   0.000000   0.000000
    11  H    0.000000   0.000000   0.000000   0.000000   0.000000   0.000000
    12  H    0.000000   0.000000   0.000000   0.000000   0.000000   0.000000
    13  C    4.540229   0.000000   0.000000   0.000000   0.000000   0.000000
    14  H    0.000000   0.912287   0.000000   0.000000   0.000000   0.000000
    15  H    0.000000   0.000000   0.829737   0.000000   0.000000   0.000000
    16  H    0.000000   0.000000   0.000000   0.829250   0.000000   0.000000
    17  H    0.000000   0.000000   0.000000   0.000000   0.800584   0.000000
    18  H    0.000000   0.000000   0.000000   0.000000   0.000000   0.807336
    19  H    0.000000   0.000000   0.000000   0.000000   0.000000   0.000000
    20  O    0.000000   0.000000   0.000000   0.000000   0.000000   0.000000
    21  O    0.000000   0.000000   0.000000   0.000000   0.000000   0.000000
    22  O    0.000000   0.000000   0.000000   0.000000   0.000000   0.000000
              19         20         21         22
     1  C    0.000000   0.000000   0.000000   0.000000
     2  C    0.000000   0.000000   0.000000   0.000000
     3  C    0.000000   0.000000   0.000000   0.000000
     4  C    0.000000   0.000000   0.000000   0.000000
     5  C    0.000000   0.000000   0.000000   0.000000
     6  C    0.000000   0.000000   0.000000   0.000000
     7  H    0.000000   0.000000   0.000000   0.000000
     8  H    0.000000   0.000000   0.000000   0.000000
     9  H    0.000000   0.000000   0.000000   0.000000
    10  H    0.000000   0.000000   0.000000   0.000000
    11  H    0.000000   0.000000   0.000000   0.000000
    12  H    0.000000   0.000000   0.000000   0.000000
    13  C    0.000000   0.000000   0.000000   0.000000
    14  H    0.000000   0.000000   0.000000   0.000000
    15  H    0.000000   0.000000   0.000000   0.000000
    16  H    0.000000   0.000000   0.000000   0.000000
    17  H    0.000000   0.000000   0.000000   0.000000
    18  H    0.000000   0.000000   0.000000   0.000000
    19  H    0.805532   0.000000   0.000000   0.000000
    20  O    0.000000   6.453453   0.000000   0.000000
    21  O    0.000000   0.000000   6.507740   0.000000
    22  O    0.000000   0.000000   0.000000   6.011431
          Atomic-Atomic Spin Densities.
               1          2          3          4          5          6
     1  C    0.000000   0.000000   0.000000   0.000000   0.000000   0.000000
     2  C    0.000000   0.000000   0.000000   0.000000   0.000000   0.000000
     3  C    0.000000   0.000000  -0.000001   0.000000   0.000000   0.000000
     4  C    0.000000   0.000000   0.000000   0.000001   0.000000   0.000000
     5  C    0.000000   0.000000   0.000000   0.000000   0.000000   0.000000
     6  C    0.000000   0.000000   0.000000   0.000000   0.000000   0.000000
     7  H    0.000000   0.000000   0.000000   0.000000   0.000000   0.000000
     8  H    0.000000   0.000000   0.000000   0.000000   0.000000   0.000000
     9  H    0.000000   0.000000   0.000000   0.000000   0.000000   0.000000
    10  H    0.000000   0.000000   0.000000   0.000000   0.000000   0.000000
    11  H    0.000000   0.000000   0.000000   0.000000   0.000000   0.000000
    12  H    0.000000   0.000000   0.000000   0.000000   0.000000   0.000000
    13  C    0.000000   0.000000   0.000000   0.000000   0.000000   0.000000
    14  H    0.000000   0.000000   0.000000   0.000000   0.000000   0.000000
    15  H    0.000000   0.000000   0.000000   0.000000   0.000000   0.000000
    16  H    0.000000   0.000000   0.000000   0.000000   0.000000   0.000000
    17  H    0.000000   0.000000   0.000000   0.000000   0.000000   0.000000
    18  H    0.000000   0.000000   0.000000   0.000000   0.000000   0.000000
    19  H    0.000000   0.000000   0.000000   0.000000   0.000000   0.000000
    20  O    0.000000   0.000000   0.000000   0.000000   0.000000   0.000000
    21  O    0.000000   0.000000   0.000000   0.000000   0.000000   0.000000
    22  O    0.000000   0.000000   0.000000   0.000000   0.000000   0.000000
               7          8          9         10         11         12
     1  C    0.000000   0.000000   0.000000   0.000000   0.000000   0.000000
     2  C    0.000000   0.000000   0.000000   0.000000   0.000000   0.000000
     3  C    0.000000   0.000000   0.000000   0.000000   0.000000   0.000000
     4  C    0.000000   0.000000   0.000000   0.000000   0.000000   0.000000
     5  C    0.000000   0.000000   0.000000   0.000000   0.000000   0.000000
     6  C    0.000000   0.000000   0.000000   0.000000   0.000000   0.000000
     7  H    0.000000   0.000000   0.000000   0.000000   0.000000   0.000000
     8  H    0.000000   0.000000   0.000000   0.000000   0.000000   0.000000
     9  H    0.000000   0.000000   0.000000   0.000000   0.000000   0.000000
    10  H    0.000000   0.000000   0.000000   0.000000   0.000000   0.000000
    11  H    0.000000   0.000000   0.000000   0.000000   0.000000   0.000000
    12  H    0.000000   0.000000   0.000000   0.000000   0.000000   0.000000
    13  C    0.000000   0.000000   0.000000   0.000000   0.000000   0.000000
    14  H    0.000000   0.000000   0.000000   0.000000   0.000000   0.000000
    15  H    0.000000   0.000000   0.000000   0.000000   0.000000   0.000000
    16  H    0.000000   0.000000   0.000000   0.000000   0.000000   0.000000
    17  H    0.000000   0.000000   0.000000   0.000000   0.000000   0.000000
    18  H    0.000000   0.000000   0.000000   0.000000   0.000000   0.000000
    19  H    0.000000   0.000000   0.000000   0.000000   0.000000   0.000000
    20  O    0.000000   0.000000   0.000000   0.000000   0.000000   0.000000
    21  O    0.000000   0.000000   0.000000   0.000000   0.000000   0.000000
    22  O    0.000000   0.000000   0.000000   0.000000   0.000000   0.000000
              13         14         15         16         17         18
     1  C    0.000000   0.000000   0.000000   0.000000   0.000000   0.000000
     2  C    0.000000   0.000000   0.000000   0.000000   0.000000   0.000000
     3  C    0.000000   0.000000   0.000000   0.000000   0.000000   0.000000
     4  C    0.000000   0.000000   0.000000   0.000000   0.000000   0.000000
     5  C    0.000000   0.000000   0.000000   0.000000   0.000000   0.000000
     6  C    0.000000   0.000000   0.000000   0.000000   0.000000   0.000000
     7  H    0.000000   0.000000   0.000000   0.000000   0.000000   0.000000
     8  H    0.000000   0.000000   0.000000   0.000000   0.000000   0.000000
     9  H    0.000000   0.000000   0.000000   0.000000   0.000000   0.000000
    10  H    0.000000   0.000000   0.000000   0.000000   0.000000   0.000000
    11  H    0.000000   0.000000   0.000000   0.000000   0.000000   0.000000
    12  H    0.000000   0.000000   0.000000   0.000000   0.000000   0.000000
    13  C    0.000000   0.000000   0.000000   0.000000   0.000000   0.000000
    14  H    0.000000   0.000000   0.000000   0.000000   0.000000   0.000000
    15  H    0.000000   0.000000   0.000000   0.000000   0.000000   0.000000
    16  H    0.000000   0.000000   0.000000   0.000000   0.000000   0.000000
    17  H    0.000000   0.000000   0.000000   0.000000   0.000000   0.000000
    18  H    0.000000   0.000000   0.000000   0.000000   0.000000   0.000000
    19  H    0.000000   0.000000   0.000000   0.000000   0.000000   0.000000
    20  O    0.000000   0.000000   0.000000   0.000000   0.000000   0.000000
    21  O    0.000000   0.000000   0.000000   0.000000   0.000000   0.000000
    22  O    0.000000   0.000000   0.000000   0.000000   0.000000   0.000000
              19         20         21         22
     1  C    0.000000   0.000000   0.000000   0.000000
     2  C    0.000000   0.000000   0.000000   0.000000
     3  C    0.000000   0.000000   0.000000   0.000000
     4  C    0.000000   0.000000   0.000000   0.000000
     5  C    0.000000   0.000000   0.000000   0.000000
     6  C    0.000000   0.000000   0.000000   0.000000
     7  H    0.000000   0.000000   0.000000   0.000000
     8  H    0.000000   0.000000   0.000000   0.000000
     9  H    0.000000   0.000000   0.000000   0.000000
    10  H    0.000000   0.000000   0.000000   0.000000
    11  H    0.000000   0.000000   0.000000   0.000000
    12  H    0.000000   0.000000   0.000000   0.000000
    13  C    0.000000   0.000000   0.000000   0.000000
    14  H    0.000000   0.000000   0.000000   0.000000
    15  H    0.000000   0.000000   0.000000   0.000000
    16  H    0.000000   0.000000   0.000000   0.000000
    17  H    0.000000   0.000000   0.000000   0.000000
    18  H    0.000000   0.000000   0.000000   0.000000
    19  H    0.000000   0.000000   0.000000   0.000000
    20  O    0.000000   0.000000   0.000000   0.000000
    21  O    0.000000   0.000000   0.000000   0.000000
    22  O    0.000000   0.000000   0.000000   0.000000
 Mulliken charges and spin densities:
               1          2
     1  C   -0.226376   0.000000
     2  C   -0.171696   0.000000
     3  C   -0.571873  -0.000001
     4  C    0.359058   0.000001
     5  C    0.405104   0.000000
     6  C   -0.446702   0.000000
     7  H    0.131948   0.000000
     8  H    0.157929   0.000000
     9  H    0.124414   0.000000
    10  H    0.128225   0.000000
    11  H    0.230826   0.000000
    12  H    0.376720   0.000000
    13  C   -0.540229   0.000000
    14  H    0.087713   0.000000
    15  H    0.170263   0.000000
    16  H    0.170750   0.000000
    17  H    0.199416   0.000000
    18  H    0.192664   0.000000
    19  H    0.194468   0.000000
    20  O   -0.453453   0.000000
    21  O   -0.507740   0.000000
    22  O   -0.011431   0.000000
 Sum of Mulliken charges =   0.00000   0.00000
 Mulliken charges and spin densities with hydrogens summed into heavy atoms:
               1          2
     1  C    0.063501   0.000000
     2  C    0.080943   0.000000
     3  C   -0.341047  -0.000001
     4  C    0.359058   0.000001
     5  C    0.492817   0.000000
     6  C   -0.105689   0.000000
    13  C    0.046320   0.000000
    20  O   -0.453453   0.000000
    21  O   -0.131020   0.000000
    22  O   -0.011431   0.000000
 APT charges:
               1
     1  C   -0.180122
     2  C   -0.068416
     3  C   -0.954088
     4  C    0.941425
     5  C    0.892977
     6  C   -0.692140
     7  H    0.113933
     8  H    0.148693
     9  H    0.101066
    10  H    0.118162
    11  H    0.245167
    12  H    0.545068
    13  C   -0.808590
    14  H    0.004938
    15  H    0.186428
    16  H    0.189835
    17  H    0.239021
    18  H    0.244149
    19  H    0.233858
    20  O   -0.680616
    21  O   -0.611965
    22  O   -0.208762
 Sum of APT charges =   0.00002
 APT charges with hydrogens summed into heavy atoms:
               1
     1  C    0.082504
     2  C    0.150812
     3  C   -0.708921
     4  C    0.941425
     5  C    0.897915
     6  C   -0.315877
    13  C   -0.091561
    20  O   -0.680616
    21  O   -0.066897
    22  O   -0.208762
 Charge=              0.0000 electrons
 Dipole moment (field-independent basis, Debye):
    X=              1.5634    Y=              5.7926    Z=              0.8065  Tot=              6.0539
 N-N= 3.259451042381D+02 E-N=-5.791602412373D+02  KE=-3.429692830780D+01
  Exact polarizability:  52.663  -0.682  75.794   3.209  10.748  79.664
 Approx polarizability:  39.189   0.483  59.550   5.689   5.711  52.499
 Leave Link  601 at Tue Feb 16 04:14:12 2021, MaxMem=    33554432 cpu:         0.0
 (Enter /cm/shared/apps/Gaussian09/g09/l701.exe)
 Compute integral second derivatives.
 ... and contract with generalized density number  0.
 Leave Link  701 at Tue Feb 16 04:14:12 2021, MaxMem=    33554432 cpu:         0.1
 (Enter /cm/shared/apps/Gaussian09/g09/l702.exe)
 L702 exits ... SP integral derivatives will be done elsewhere.
 Leave Link  702 at Tue Feb 16 04:14:12 2021, MaxMem=    33554432 cpu:         0.0
 (Enter /cm/shared/apps/Gaussian09/g09/l703.exe)
 Compute integral second derivatives, UseDBF=F ICtDFT=           0.
 Integral derivatives from FoFJK, PRISM(SPDF).
 Calling FoFJK, ICntrl=    100127 FMM=F ISym2X=0 I1Cent= 0 IOpClX= 1 NMat=1 NMatS=1 NMatT=0.
 FoFJK:  IHMeth=40 ICntrl=  100127 DoSepK=F KAlg= 0 I1Cent=   0 FoldK=F
 IRaf=         0 NMat=   1 IRICut=       1 DoRegI=T DoRafI=F ISym2E= 0.
 FoFCou: FMM=F IPFlag=           0 FMFlag=      100000 FMFlg1=         800
         NFxFlg=           0 DoJE=F BraDBF=F KetDBF=F FulRan=T
         wScrn=  0.000000 ICntrl=  100127 IOpCl=  1 I1Cent=           0 NGrid=           0
         NMat0=    1 NMatS0=      1 NMatT0=    0 NMatD0=    1 NMtDS0=    0 NMtDT0=    0
 Symmetry not used in FoFCou.
 Leave Link  703 at Tue Feb 16 04:14:12 2021, MaxMem=    33554432 cpu:         0.0
 (Enter /cm/shared/apps/Gaussian09/g09/l716.exe)
 Dipole        = 6.15080522D-01 2.27899693D+00 3.17297734D-01
 Polarizability= 5.26634300D+01-6.81565742D-01 7.57941973D+01
                 3.20918392D+00 1.07475543D+01 7.96639805D+01
 HyperPolar    = 2.88056161D+01 2.36895918D+01 2.70912506D+01
                 1.55160719D+02-6.38320711D+00-1.95232294D+01
                 1.33161953D+02-6.74941972D+01 6.59633418D+01
                -2.23286526D+02
 -------------------------------------------------------------------
 Center     Atomic                   Forces (Hartrees/Bohr)
 Number     Number              X              Y              Z
 -------------------------------------------------------------------
      1        6           0.000642712   -0.001277878    0.001479856
      2        6           0.000231691    0.000452106   -0.000005428
      3        6           0.006345961   -0.000563113    0.000068724
      4        6          -0.001797231   -0.001228082    0.000167311
      5        6           0.001595805   -0.000426822    0.000009459
      6        6           0.000201711    0.000709391    0.000611595
      7        1           0.000577090    0.000015290   -0.000317723
      8        1          -0.000907880   -0.003783731    0.000183337
      9        1           0.000663804    0.001194731   -0.001214372
     10        1          -0.000625628   -0.000449277   -0.000622170
     11        1          -0.000943076   -0.001221802    0.001651677
     12        1           0.011225593   -0.014607032   -0.022563390
     13        6           0.000544082    0.000865202   -0.000353172
     14        1          -0.000866787    0.000738637   -0.000127958
     15        1          -0.000218390    0.000672420   -0.000189256
     16        1           0.000169431    0.001924395    0.000042730
     17        1          -0.001365419   -0.001806679    0.000945451
     18        1          -0.000272283   -0.002248093   -0.000444911
     19        1           0.001673870    0.002703180   -0.002283996
     20        8          -0.002222126   -0.001417138   -0.001388660
     21        8          -0.016417732    0.020815199    0.025057521
     22        8           0.001764803   -0.001060903   -0.000706626
 -------------------------------------------------------------------
 Cartesian Forces:  Max     0.025057521 RMS     0.005909368
 Leave Link  716 at Tue Feb 16 04:14:12 2021, MaxMem=    33554432 cpu:         0.0
 (Enter /cm/shared/apps/Gaussian09/g09/l103.exe)

 GradGradGradGradGradGradGradGradGradGradGradGradGradGradGradGradGradGrad
 Berny optimization.
 Search for a saddle point.
 Step number   1 out of a maximum of  100
 All quantities printed in internal units (Hartrees-Bohrs-Radians)
 Swapping is turned off.
 Second derivative matrix not updated -- analytic derivatives used.
 ITU=  0
     Eigenvalues ---   -0.17620  -0.00081  -0.00053  -0.00018  -0.00007
     Eigenvalues ---    0.00040   0.00223   0.00407   0.00727   0.01179
     Eigenvalues ---    0.01512   0.01895   0.02396   0.03227   0.03378
     Eigenvalues ---    0.03722   0.04140   0.04410   0.05102   0.05335
     Eigenvalues ---    0.05740   0.05871   0.06033   0.06170   0.06643
     Eigenvalues ---    0.06984   0.07343   0.07954   0.08877   0.09573
     Eigenvalues ---    0.11144   0.12390   0.13704   0.14695   0.16504
     Eigenvalues ---    0.17270   0.20196   0.21689   0.22960   0.23382
     Eigenvalues ---    0.27517   0.31458   0.41040   0.43720   0.49772
     Eigenvalues ---    0.51786   0.53831   0.54388   0.55636   0.56910
     Eigenvalues ---    0.59116   0.61646   0.62517   0.64615   0.68836
     Eigenvalues ---    0.70233   0.80008   0.87438   1.24162   1.69051
 Eigenvectors required to have negative eigenvalues:
                          Y12       Z12       Z21       Y3        X11
   1                    0.62477   0.53456  -0.36770  -0.29704   0.14038
                          Z3        X3        X12       X21       Y4
   1                    0.13395  -0.10352  -0.09457   0.08372  -0.08023
 Eigenvalue     2 is  -8.15D-04 should be greater than     0.000000 Eigenvector:
                          Z19       X17       X18       Y17       Y19
   1                    0.56210  -0.42727   0.41696  -0.36764   0.25865
                          Z18       X19       Z17       Y18       Y10
   1                   -0.23265  -0.13936  -0.13573   0.11155  -0.04519
 Eigenvalue     3 is  -5.25D-04 should be greater than     0.000000 Eigenvector:
                          Y15       X16       Y20       X20       Y10
   1                    0.39930  -0.37901  -0.32144   0.28368  -0.21768
                          Z15       Y14       Z7        X9        Y6
   1                   -0.20245   0.17777  -0.16818   0.15861   0.15398
 Eigenvalue     4 is  -1.79D-04 should be greater than     0.000000 Eigenvector:
                          Y14       X14       X9        Y7        X18
   1                    0.47935  -0.25290  -0.24408  -0.22310   0.20190
                          X19       Y20       Y10       Z20       Z8
   1                    0.19341  -0.18682   0.18367   0.17461   0.17277
 Eigenvalue     5 is  -6.57D-05 should be greater than     0.000000 Eigenvector:
                          Y14       X14       X16       Y15       X9
   1                    0.43402  -0.41485   0.30401  -0.24112   0.20293
                          X18       X19       Z14       Y20       Y10
   1                   -0.18941  -0.17287  -0.17269  -0.16974  -0.16816
 RFO step:  Lambda0=6.231715772D-03 Lambda=-8.21644723D-03.
 Linear search not attempted -- option 19 set.
 Maximum step size (   0.300) exceeded in Quadratic search.
    -- Step size scaled by   0.277
 TrRot=  0.017364  0.026419 -0.009351  0.133415 -0.001137 -0.135891
 Variable       Old X    -DE/DX   Delta X   Delta X   Delta X     New X
                                 (Linear)    (Quad)   (Total)
    X1        9.66103   0.00064   0.00000   0.01687   0.01214   9.67317
    Y1       -8.24555  -0.00128   0.00000  -0.03175  -0.02948  -8.27504
    Z1        1.36694   0.00148   0.00000   0.01634   0.01661   1.38355
    X2       12.18589   0.00023   0.00000   0.01003   0.00584  12.19174
    Y2       -8.69805   0.00045   0.00000   0.01424   0.01049  -8.68756
    Z2        0.01511  -0.00001   0.00000  -0.01252  -0.00946   0.00565
    X3       12.23248   0.00635   0.00000   0.02689   0.02004  12.25252
    Y3      -10.67245  -0.00056   0.00000  -0.00009  -0.00370 -10.67615
    Z3       -2.00123   0.00007   0.00000  -0.00194   0.00088  -2.00035
    X4       11.17139  -0.00180   0.00000   0.00660   0.00295  11.17434
    Y4      -10.48038  -0.00123   0.00000   0.00984   0.00927 -10.47111
    Z4       -4.39166   0.00017   0.00000  -0.00621  -0.00458  -4.39623
    X5        8.38824   0.00160   0.00000  -0.02232  -0.02940   8.35885
    Y5       -7.15588  -0.00043   0.00000  -0.00545  -0.00062  -7.15650
    Z5        5.92451   0.00001   0.00000  -0.00612  -0.00715   5.91736
    X6       10.11708   0.00020   0.00000   0.01301   0.00970  10.12677
    Y6       -6.60654   0.00071   0.00000  -0.02922  -0.02844  -6.63497
    Z6        3.71907   0.00061   0.00000   0.01606   0.01710   3.73617
    X7        8.26229   0.00058   0.00000  -0.00798  -0.00911   8.25318
    Y7       -7.34729   0.00002   0.00000  -0.04525  -0.03928  -7.38657
    Z7        0.10555  -0.00032   0.00000   0.03307   0.03188   0.13743
    X8        8.78379  -0.00091   0.00000   0.04915   0.03927   8.82305
    Y8      -10.04929  -0.00378   0.00000  -0.05062  -0.04634 -10.09563
    Z8        1.93838   0.00018   0.00000   0.01564   0.01468   1.95307
    X9       12.84562   0.00066   0.00000  -0.03649  -0.03522  12.81040
    Y9       -6.88016   0.00119   0.00000   0.02320   0.01804  -6.86211
    Z9       -0.79592  -0.00121   0.00000  -0.03263  -0.02860  -0.82453
   X10       13.63629  -0.00063   0.00000   0.03542   0.02845  13.66474
   Y10       -9.20267  -0.00045   0.00000   0.04851   0.04088  -9.16179
   Z10        1.45876  -0.00062   0.00000  -0.02762  -0.02298   1.43578
   X11       14.01333  -0.00094   0.00000   0.06083   0.05119  14.06452
   Y11      -11.82740  -0.00122   0.00000   0.05273   0.04463 -11.78277
   Z11       -1.92177   0.00165   0.00000  -0.03267  -0.02798  -1.94974
   X12       11.66328   0.01123   0.00000   0.00857  -0.00499  11.65829
   Y12      -13.39600  -0.01461   0.00000   0.06890   0.06674 -13.32926
   Z12       -1.93095  -0.02256   0.00000   0.04251   0.04426  -1.88670
   X13        9.94776   0.00054   0.00000   0.01056   0.01368   9.96143
   Y13       -8.31378   0.00087   0.00000   0.00312   0.00575  -8.30803
   Z13       -5.63014  -0.00035   0.00000  -0.01963  -0.01904  -5.64918
   X14        8.95901  -0.00087   0.00000  -0.04348  -0.05025   8.90876
   Y14       -6.22704   0.00074   0.00000   0.00119   0.00439  -6.22266
   Z14        7.70432  -0.00013   0.00000  -0.00259  -0.00286   7.70146
   X15       12.09774  -0.00022   0.00000   0.00265  -0.00210  12.09564
   Y15       -6.84303   0.00067   0.00000  -0.05298  -0.05717  -6.90020
   Z15        4.38723  -0.00019   0.00000   0.03688   0.04010   4.42733
   X16        9.94395   0.00017   0.00000   0.04726   0.04954   9.99349
   Y16       -4.58668   0.00192   0.00000  -0.02547  -0.02427  -4.61094
   Z16        3.20985   0.00004   0.00000   0.01203   0.01323   3.22308
   X17        8.56180  -0.00137   0.00000   0.07662   0.08076   8.64257
   Y17       -7.37515  -0.00181   0.00000   0.05961   0.06532  -7.30983
   Z17       -4.38881   0.00095   0.00000   0.01356   0.01282  -4.37599
   X18        8.98522  -0.00027   0.00000  -0.07625  -0.07241   8.91281
   Y18       -8.76520  -0.00225   0.00000  -0.04096  -0.03547  -8.80067
   Z18       -7.41334  -0.00044   0.00000   0.03609   0.03542  -7.37791
   X19       11.38070   0.00167   0.00000   0.02065   0.02784  11.40854
   Y19       -6.86487   0.00270   0.00000  -0.03763  -0.03850  -6.90337
   Z19       -6.04421  -0.00228   0.00000  -0.13483  -0.13240  -6.17661
   X20        6.55677  -0.00222   0.00000  -0.03328  -0.04353   6.51324
   Y20       -8.51271  -0.00142   0.00000   0.00985   0.01926  -8.49345
   Z20        5.82689  -0.00139   0.00000  -0.02961  -0.03292   5.79397
   X21       12.24824  -0.01642   0.00000  -0.04974  -0.06357  12.18466
   Y21      -14.57173   0.02082   0.00000   0.01992   0.01683 -14.55490
   Z21       -4.36840   0.02506   0.00000   0.03694   0.03909  -4.32931
   X22       11.12352   0.00176   0.00000  -0.02322  -0.03082  11.09270
   Y22      -12.67890  -0.00106   0.00000   0.00182   0.00166 -12.67724
   Z22       -5.76232  -0.00071   0.00000   0.02068   0.02188  -5.74044
         Item               Value     Threshold  Converged?
 Maximum Force            0.025058     0.000450     NO 
 RMS     Force            0.005909     0.000300     NO 
 Maximum Displacement     0.132397     0.001800     NO 
 RMS     Displacement     0.036578     0.001200     NO 
 Predicted change in Energy=-6.235079D-04
 Lowest energy point so far.  Saving SCF results.
 GradGradGradGradGradGradGradGradGradGradGradGradGradGradGradGradGradGrad

 Leave Link  103 at Tue Feb 16 04:14:12 2021, MaxMem=    33554432 cpu:         0.0
 (Enter /cm/shared/apps/Gaussian09/g09/l202.exe)
                          Input orientation:                          
 ---------------------------------------------------------------------
 Center     Atomic      Atomic             Coordinates (Angstroms)
 Number     Number       Type             X           Y           Z
 ---------------------------------------------------------------------
      1          6           0        5.118824   -4.378962    0.732145
      2          6           0        6.451590   -4.597261    0.002990
      3          6           0        6.483753   -5.649573   -1.058537
      4          6           0        5.913205   -5.541073   -2.326387
      5          6           0        4.423311   -3.787057    3.131331
      6          6           0        5.358858   -3.511077    1.977094
      7          1           0        4.367394   -3.908805    0.072724
      8          1           0        4.668959   -5.342378    1.033518
      9          1           0        6.778973   -3.631275   -0.436321
     10          1           0        7.231070   -4.848209    0.759783
     11          1           0        7.442624   -6.235174   -1.031759
     12          1           0        6.169300   -7.053539   -0.998396
     13          6           0        5.271364   -4.396420   -2.989416
     14          1           0        4.714312   -3.292888    4.075437
     15          1           0        6.400739   -3.651430    2.342844
     16          1           0        5.288325   -2.440007    1.705578
     17          1           0        4.573450   -3.868196   -2.315672
     18          1           0        4.716455   -4.657112   -3.904224
     19          1           0        6.037141   -3.653105   -3.268519
     20          8           0        3.446660   -4.494541    3.066035
     21          8           0        6.447847   -7.702120   -2.290972
     22          8           0        5.870003   -6.708506   -3.037709
 ---------------------------------------------------------------------
                    Distance matrix (angstroms):
                    1          2          3          4          5
     1  C    0.000000
     2  C    1.534792   0.000000
     3  C    2.585349   1.495070   0.000000
     4  C    3.366922   2.570338   1.394540   0.000000
     5  C    2.567135   3.815346   5.026866   5.923094   0.000000
     6  C    1.536470   2.504186   3.879898   4.790421   1.511184
     7  H    1.104776   2.196066   2.964625   3.287790   3.061539
     8  H    1.105158   2.189740   2.786492   3.588396   2.623011
     9  H    2.163434   1.110542   2.132565   2.822983   4.278032
    10  H    2.163918   1.115034   2.122959   3.426555   3.825414
    11  H    3.457880   2.176147   1.123868   2.120604   5.695687
    12  H    3.354346   2.667539   1.440006   2.028965   5.547344
    13  C    3.724727   3.223005   2.601648   1.470305   6.209192
    14  H    3.538473   4.615663   5.919677   6.890213   1.104636
    15  H    2.183337   2.524302   3.945739   5.060648   2.133150
    16  H    2.176201   2.984249   4.401216   5.124825   2.143727
    17  H    3.138073   3.071666   2.898784   2.143262   5.449676
    18  H    4.662101   4.275581   3.493746   2.168678   7.095207
    19  H    4.168391   3.430155   3.011539   2.113621   6.601551
    20  O    2.873418   4.292132   5.250727   6.021403   1.207743
    21  O    4.684967   3.860366   2.394397   2.226482   6.987692
    22  O    4.494758   3.747192   2.327048   1.367752   6.977452
                    6          7          8          9         10
     6  C    0.000000
     7  H    2.183532   0.000000
     8  H    2.172547   1.751912   0.000000
     9  H    2.802811   2.480295   3.088764   0.000000
    10  H    2.602873   3.091143   2.623651   1.765215   0.000000
    11  H    4.562454   4.011099   3.571508   2.752321   2.275533
    12  H    4.696743   3.779354   3.050864   3.521296   3.013640
    13  C    5.045564   3.229804   4.176329   3.062128   4.254533
    14  H    2.205921   4.064654   3.668207   4.973258   4.443721
    15  H    1.113098   3.058459   2.751854   2.804858   2.151235
    16  H    1.107198   2.381531   3.042867   2.868604   3.235464
    17  H    4.378612   2.397613   3.660520   2.907305   4.181123
    18  H    6.026275   4.061764   4.985292   4.163253   5.302148
    19  H    5.291191   3.743974   4.820071   2.927821   4.368175
    20  O    2.410289   3.186024   2.518724   4.910809   4.445856
    21  O    6.080060   4.929968   4.448040   4.485661   4.250336
    22  O    5.969345   4.446455   4.459114   4.130715   4.442314
                   11         12         13         14         15
    11  H    0.000000
    12  H    1.513997   0.000000
    13  C    3.453666   3.439583   0.000000
    14  H    6.494936   6.480993   7.172185   0.000000
    15  H    4.375981   4.774075   5.501227   2.444272   0.000000
    16  H    5.151439   5.419620   5.086336   2.583239   1.763837
    17  H    3.934867   3.798468   1.104552   6.418497   5.008767
    18  H    4.263020   4.037011   1.101254   8.095437   6.547830
    19  H    3.693989   4.090706   1.103100   7.470831   5.623131
    20  O    5.982428   5.520946   6.325161   2.017376   3.156014
    21  O    2.174196   1.472752   3.577651   7.935845   6.154881
    22  O    2.592492   2.089838   2.388817   7.974893   6.211099
                   16         17         18         19         20
    16  H    0.000000
    17  H    4.326803   0.000000
    18  H    6.059082   1.779420   0.000000
    19  H    5.174358   1.759708   1.776616   0.000000
    20  O    3.076310   5.533962   7.086842   6.895302   0.000000
    21  O    6.708707   4.267662   3.856471   4.185546   6.927713
    22  O    6.407591   3.204645   2.507935   3.068662   6.930363
                   21         22
    21  O    0.000000
    22  O    1.370689   0.000000
 Symmetry turned off by external request.
 Stoichiometry    C7H12O3
 Framework group  C1[X(C7H12O3)]
 Deg. of freedom    60
 Full point group                 C1      NOp   1
 Rotational constants (GHZ):      2.6541081      0.4776532      0.4567363
 Leave Link  202 at Tue Feb 16 04:14:12 2021, MaxMem=    33554432 cpu:         0.0
 (Enter /cm/shared/apps/Gaussian09/g09/l301.exe)
 Standard basis: VSTO-6G (5D, 7F)
 Ernie: Thresh=  0.10000D-02 Tol=  0.10000D-05 Strict=F.
  NNHCO=     0 NNPyr=     0 NCTC=     0               EPep=         0.000000000
    EC=       252.188677602  ECS=         4.118159951   EG=         0.367751803
   EHC=         0.000992920  EAt=       -66.250074573  AtH=         3.187411664
 EPDDG=         0.000000000  ECC=       256.675582276 EAtT=        69.437486237
    52 basis functions,   312 primitive gaussians,    52 cartesian basis functions
    29 alpha electrons       29 beta electrons
       nuclear repulsion energy       326.1130685128 Hartrees.
 IExCor=    0 DFT=F Ex=HF Corr=None ExCW=0 ScaHFX=  1.000000
 ScaDFX=  1.000000  1.000000  1.000000  1.000000 ScalE2=  1.000000  1.000000
 IRadAn=      0 IRanWt=     -1 IRanGd=            0 ICorTp=0 IEmpDi=  4
 Integral buffers will be    131072 words long.
 Regular integral format.
 Two-electron integral symmetry is turned off.
 Leave Link  301 at Tue Feb 16 04:14:12 2021, MaxMem=    33554432 cpu:         0.0
 (Enter /cm/shared/apps/Gaussian09/g09/l302.exe)
 Do NDO integrals.
 NPDir=0 NMtPBC=     1 NCelOv=     1 NCel=       1 NClECP=     1 NCelD=      1
         NCelK=      1 NCelE2=     1 NClLst=     1 CellRange=     0.0.
 One-electron integrals computed using PRISM.
 NBasis=    52 RedAO= F EigKep=  0.00D+00  NBF=    52
 NBsUse=    52 1.00D-04 EigRej=  0.00D+00 NBFU=    52
 Leave Link  302 at Tue Feb 16 04:14:12 2021, MaxMem=    33554432 cpu:         0.1
 (Enter /cm/shared/apps/Gaussian09/g09/l303.exe)
 DipDrv:  MaxL=1.
 Leave Link  303 at Tue Feb 16 04:14:12 2021, MaxMem=    33554432 cpu:         0.0
 (Enter /cm/shared/apps/Gaussian09/g09/l401.exe)
 Initial guess from the checkpoint file:  "/local/Gau-1587.chk"
 B after Tr=     0.042587    0.059220   -0.019329
         Rot=    0.999995   -0.000399    0.001406    0.002827 Ang=  -0.36 deg.
 Guess basis will be translated and rotated to current coordinates.
 JPrj=0 DoOrth=T DoCkMO=T.
 Initial guess <Sx>= 0.0000 <Sy>= 0.0000 <Sz>= 0.0000 <S**2>= 0.0000 S= 0.0000
 Leave Link  401 at Tue Feb 16 04:14:12 2021, MaxMem=    33554432 cpu:         0.1
 (Enter /cm/shared/apps/Gaussian09/g09/l508.exe)
 Direct SCF.
 Tight linear equation convergence will be used.
 UPM6 wavefunction.
 Quadratic Convergence SCF Method.
 Line search only if initial step raises energy.
 Two-electron integral symmetry not used.
 ReadGW:  IGet=1 IStart=       59293 Next=       59293 LGW=           0.
 Keep J ints in memory in canonical form, NReq=905730.
 FoFCou: FMM=F IPFlag=           0 FMFlag=           0 FMFlg1=           0
         NFxFlg=           0 DoJE=F BraDBF=F KetDBF=F FulRan=T
         wScrn=  0.000000 ICntrl=     600 IOpCl=  2 I1Cent=           0 NGrid=           0
         NMat0=    1 NMatS0=    112 NMatT0=    0 NMatD0=    1 NMtDS0=    0 NMtDT0=    0
 Symmetry not used in FoFCou.
 Iteration   1 EE=-0.167348636394991E-01                                Grad=3.408D-02 Max rot=    0.3633 deg.
 Gradient too large for Newton-Raphson -- use scaled steepest descent instead.
 Alpha Gap=     0.335 HL deriv= 5.43D-03
  Beta Gap=     0.335 HL deriv= 5.43D-03
     ILin= 1 X=0.000D+00 Y=-1.673486363950D-02 DE= 0.00D+00 F= -3.23D-03
     ILin= 2 X=3.000D-01 Y=-1.762271138568D-02 DE=-8.88D-04 F= -2.69D-03
     ILin= 3 X=6.000D-01 Y=-1.834963014250D-02 DE=-1.61D-03 F= -2.15D-03
     ILin= 4 X=1.200D+00 Y=-1.932049858067D-02 DE=-2.59D-03 F= -1.08D-03
     ILin= 5 X=2.400D+00 Y=-1.932961548084D-02 DE=-2.59D-03 F=  1.07D-03
     Accept linear search using points  4 and  5.
     An  expanding polynomial of degree  5 produced  1.8055
 Iteration   2 EE=-0.196472142699236E-01 Delta-E=       -0.002912350630 Grad=6.339D-03 Max rot=    0.0883 deg.
 QCNR:  CnvC1=3.65D-09 CnvC2=3.65D-08
 LinEq1:  Iter=  0 NonCon=     1 RMS=2.50D-04 Max=2.53D-03 NDo=     1
 AX will form     1 AO Fock derivatives at one time.
 LinEq1:  Iter=  1 NonCon=     1 RMS=6.09D-05 Max=8.00D-04 NDo=     1
 LinEq1:  Iter=  2 NonCon=     1 RMS=1.03D-05 Max=1.00D-04 NDo=     1
 LinEq1:  Iter=  3 NonCon=     1 RMS=1.94D-06 Max=1.98D-05 NDo=     1
 LinEq1:  Iter=  4 NonCon=     1 RMS=2.79D-07 Max=2.07D-06 NDo=     1
 LinEq1:  Iter=  5 NonCon=     1 RMS=3.90D-08 Max=4.88D-07 NDo=     1
 LinEq1:  Iter=  6 NonCon=     1 RMS=7.49D-09 Max=5.94D-08 NDo=     1
 LinEq1:  Iter=  7 NonCon=     0 RMS=1.62D-09 Max=1.40D-08 NDo=     1
 Linear equations converged to 3.652D-09 3.652D-08 after     7 iterations.
 Angle between quadratic step and gradient=  43.39 degrees.
     ILin= 1 X=0.000D+00 Y=-1.964721426992D-02 DE= 0.00D+00 F= -1.94D-04
     ILin= 2 X=1.000D+00 Y=-1.974410653349D-02 DE=-9.69D-05 F=  1.51D-07
     Accept linear search using points  1 and  2.
     An  expanding polynomial of degree  2 produced  0.9992
     Minimum is close to point  2 DX= -7.79D-04 DF= -5.88D-11 DXR=  7.79D-04 DFR=  6.07D-07 which will be used.
 Iteration   3 EE=-0.197441065334942E-01 Delta-E=       -0.000096892264 Grad=1.800D-05 Max rot=    0.0003 deg.
 QCNR:  CnvC1=1.80D-10 CnvC2=1.80D-09
 LinEq1:  Iter=  0 NonCon=     1 RMS=9.38D-07 Max=1.23D-05 NDo=     1
 LinEq1:  Iter=  1 NonCon=     1 RMS=1.95D-07 Max=1.67D-06 NDo=     1
 LinEq1:  Iter=  2 NonCon=     1 RMS=2.93D-08 Max=3.31D-07 NDo=     1
 LinEq1:  Iter=  3 NonCon=     1 RMS=5.25D-09 Max=5.19D-08 NDo=     1
 LinEq1:  Iter=  4 NonCon=     1 RMS=9.77D-10 Max=9.19D-09 NDo=     1
 LinEq1:  Iter=  5 NonCon=     0 RMS=1.73D-10 Max=1.13D-09 NDo=     1
 Linear equations converged to 1.800D-10 1.800D-09 after     5 iterations.
 Angle between quadratic step and gradient=  33.66 degrees.
     ILin= 1 X=0.000D+00 Y=-1.974410653349D-02 DE= 0.00D+00 F= -1.48D-09
     ILin= 2 X=1.000D+00 Y=-1.974410727155D-02 DE=-7.38D-10
 Iteration   4 EE=-0.197441072715492E-01 Delta-E=       -0.000000000738 Grad=5.231D-08 Max rot=    0.0000 deg.
 Rotation gradient small -- convergence achieved.
 SCF Done:  E(UPM6) = -0.197441072715E-01 a.u. after    4 cycles
            Convg  =    0.5231D-07                    20 Fock formations.
              S**2 =  0.0000                  -V/T =  0.9994
 <Sx>= 0.0000 <Sy>= 0.0000 <Sz>= 0.0000 <S**2>= 0.0000 S= 0.0000
 <L.S>= 0.000000000000E+00
 Annihilation of the first spin contaminant:
 S**2 before annihilation     0.0000,   after     0.0000
 Leave Link  508 at Tue Feb 16 04:14:12 2021, MaxMem=    33554432 cpu:         0.1
 (Enter /cm/shared/apps/Gaussian09/g09/l801.exe)
 Range of M.O.s used for correlation:     1    52
 NBasis=    52 NAE=    29 NBE=    29 NFC=     0 NFV=     0
 NROrb=     52 NOA=    29 NOB=    29 NVA=    23 NVB=    23
 Leave Link  801 at Tue Feb 16 04:14:12 2021, MaxMem=    33554432 cpu:         0.0
 (Enter /cm/shared/apps/Gaussian09/g09/l1101.exe)
 Using compressed storage, NAtomX=    22.
 Will process     23 centers per pass.
 Leave Link 1101 at Tue Feb 16 04:14:12 2021, MaxMem=    33554432 cpu:         0.0
 (Enter /cm/shared/apps/Gaussian09/g09/l1102.exe)
 Symmetrizing basis deriv contribution to polar:
 IMax=3 JMax=2 DiffMx= 0.00D+00
 Leave Link 1102 at Tue Feb 16 04:14:12 2021, MaxMem=    33554432 cpu:         0.0
 (Enter /cm/shared/apps/Gaussian09/g09/l1110.exe)
 Forming Gx(P) for the SCF density, NAtomX=    22.
 Integral derivatives from FoFJK, PRISM(SPDF).
 Do as many integral derivatives as possible in FoFJK.
 G2DrvN: MDV=      33495261.
 G2DrvN: will do    23 centers at a time, making    1 passes.
 Calling FoFCou, ICntrl=  3107 FMM=F I1Cent=   0 AccDes= 0.00D+00.
 FoFJK:  IHMeth=40 ICntrl=    3107 DoSepK=F KAlg= 0 I1Cent=   0 FoldK=F
 IRaf=         0 NMat=   1 IRICut=       1 DoRegI=T DoRafI=F ISym2E= 0.
 FoFCou: FMM=F IPFlag=           0 FMFlag=      100000 FMFlg1=           0
         NFxFlg=           0 DoJE=F BraDBF=F KetDBF=F FulRan=T
         wScrn=  0.000000 ICntrl=    3107 IOpCl=  1 I1Cent=           0 NGrid=           0
         NMat0=    1 NMatS0=      1 NMatT0=    0 NMatD0=    1 NMtDS0=    0 NMtDT0=    0
 Symmetry not used in FoFCou.
 End of G2Drv F.D. properties file   721 does not exist.
 End of G2Drv F.D. properties file   722 does not exist.
 End of G2Drv F.D. properties file   788 does not exist.
 Leave Link 1110 at Tue Feb 16 04:14:12 2021, MaxMem=    33554432 cpu:         0.0
 (Enter /cm/shared/apps/Gaussian09/g09/l1002.exe)
 Minotr:  UHF open shell wavefunction.
          IDoAtm=1111111111111111111111
          Direct CPHF calculation.
          Differentiating once with respect to electric field.
                with respect to dipole field.
          Differentiating once with respect to nuclear coordinates.
          Electric field/nuclear overlap derivatives assumed to be zero.
          Requested convergence is 1.0D-08 RMS, and 1.0D-07 maximum.
          NewPWx=T KeepS1=F KeepF1=F KeepIn=T MapXYZ=F SortEE=F KeepMc=T.
          MDV=      33495213 using IRadAn=       2.
 Keep J ints in memory in canonical form, NReq=888555.
 FoFCou: FMM=F IPFlag=           0 FMFlag=           0 FMFlg1=           0
         NFxFlg=           0 DoJE=F BraDBF=F KetDBF=F FulRan=T
         wScrn=  0.000000 ICntrl=     600 IOpCl=  2 I1Cent=           0 NGrid=           0
         NMat0=    1 NMatS0=    112 NMatT0=    0 NMatD0=    1 NMtDS0=    0 NMtDT0=    0
 Symmetry not used in FoFCou.
          Solving linear equations separately, MaxMat=       0.
          There are    69 degrees of freedom in the 1st order CPHF.  IDoFFX=5 NUNeed=    69.
 LinEq1:  Iter=  0 NonCon=    69 RMS=2.09D-01 Max=2.33D+00 NDo=    69
 AX will form    69 AO Fock derivatives at one time.
 LinEq1:  Iter=  1 NonCon=    69 RMS=3.46D-02 Max=2.77D-01 NDo=    69
 LinEq1:  Iter=  2 NonCon=    69 RMS=6.67D-03 Max=8.35D-02 NDo=    69
 LinEq1:  Iter=  3 NonCon=    69 RMS=1.07D-03 Max=9.55D-03 NDo=    69
 LinEq1:  Iter=  4 NonCon=    69 RMS=1.82D-04 Max=1.49D-03 NDo=    69
 LinEq1:  Iter=  5 NonCon=    69 RMS=2.85D-05 Max=2.57D-04 NDo=    69
 LinEq1:  Iter=  6 NonCon=    69 RMS=5.01D-06 Max=3.89D-05 NDo=    69
 LinEq1:  Iter=  7 NonCon=    36 RMS=1.00D-06 Max=9.20D-06 NDo=    69
 LinEq1:  Iter=  8 NonCon=     7 RMS=1.49D-07 Max=1.02D-06 NDo=    69
 LinEq1:  Iter=  9 NonCon=     3 RMS=2.24D-08 Max=1.69D-07 NDo=    69
 LinEq1:  Iter= 10 NonCon=     0 RMS=3.69D-09 Max=2.77D-08 NDo=    69
 Linear equations converged to 1.000D-08 1.000D-07 after    10 iterations.
 FullF1:  Do perturbations    1 to     3.
 Isotropic polarizability for W=    0.000000       69.30 Bohr**3.
 End of Minotr F.D. properties file   721 does not exist.
 End of Minotr F.D. properties file   722 does not exist.
 End of Minotr F.D. properties file   788 does not exist.
 Leave Link 1002 at Tue Feb 16 04:14:13 2021, MaxMem=    33554432 cpu:         0.4
 (Enter /cm/shared/apps/Gaussian09/g09/l701.exe)
 Compute integral second derivatives.
 ... and contract with generalized density number  0.
 Leave Link  701 at Tue Feb 16 04:14:13 2021, MaxMem=    33554432 cpu:         0.1
 (Enter /cm/shared/apps/Gaussian09/g09/l702.exe)
 L702 exits ... SP integral derivatives will be done elsewhere.
 Leave Link  702 at Tue Feb 16 04:14:13 2021, MaxMem=    33554432 cpu:         0.0
 (Enter /cm/shared/apps/Gaussian09/g09/l703.exe)
[...]
 0017443,0.00022667,0.00044099,-0.00021400,-0.00036516,-0.00003731,-0.0
 0054117,-0.00069022,-0.00018597,-0.00076513,-0.00018065,0.00093279,-0.
 00261350,0.00480478,0.01333675,-0.08573374,0.07096435,0.00063730,-0.00
 003527,0.00027591,-0.00081300,0.00047934,-0.00029495,-0.01359328,0.022
 11290,-0.01793587,-0.13336050,0.08282581,-0.04521796,-0.00144456,0.000
 10630,-0.00050782,0.00101123,-0.00019060,-0.00017342,-0.00059660,-0.00
 004027,-0.00003471,-0.00018031,0.00007256,-0.00004281,0.00004594,0.000
 03847,0.00028206,0.00015657,0.00003705,0.00011870,0.00032723,0.0001426
 4,-0.00037887,-0.00353833,-0.00565983,-0.00277790,0.42593843,-0.000074
 83,0.00091861,-0.00010266,-0.00036504,-0.00034948,-0.00065975,0.010706
 58,0.00222837,0.00767670,0.08797683,-0.16863989,0.05541929,0.00044963,
 -0.00031201,0.00044853,-0.00034403,0.00067342,-0.00014135,0.00003803,-
 0.00057189,0.00003277,-0.00001028,-0.00025501,-0.00023070,0.00027757,-
 0.00040059,0.00046055,-0.00006351,-0.00011903,-0.00001703,-0.00077873,
 0.00081140,-0.00007241,-0.00113957,-0.00275325,-0.00318670,-0.04153943
 ,0.46486936,-0.00055249,0.00063198,-0.00151138,-0.00081030,-0.00003493
 ,-0.00107942,-0.01788836,0.01197966,-0.00000442,-0.05050848,0.05343966
 ,-0.09908177,-0.00054182,0.00019453,0.00065660,-0.00022313,-0.00012686
 ,-0.00085491,0.00010419,-0.00001586,-0.00077812,-0.00001112,-0.0003143
 2,0.00018951,0.00044200,-0.00000247,0.00019597,0.00015029,0.00010473,0
 .00016890,-0.00041112,0.00074443,-0.00228582,0.00085342,0.00119438,-0.
 00040076,0.03744065,-0.02690230,0.40776323,-0.00224759,0.00006287,0.00
 060246,0.00006354,0.00027215,0.00039536,-0.00006340,0.00011928,0.00039
 836,-0.00028894,-0.00005042,-0.00029752,-0.03273389,0.00123783,0.02012
 380,-0.01067115,0.00988557,0.02362210,-0.00036746,-0.00003405,-0.00019
 428,-0.00010905,-0.00015721,-0.00003176,-0.00000115,0.00006815,-0.0000
 6571,0.00009107,-0.00003908,0.00000052,0.00003355,0.00003106,-0.000005
 70,-0.00001810,-0.00017077,-0.00009869,0.00017338,-0.00007908,0.000072
 03,0.05574114,-0.00059791,0.00030405,-0.00014639,0.00004243,-0.0000186
 0,-0.00002058,-0.00007783,-0.00005563,0.00002188,0.00002509,0.00004122
 ,-0.00002208,-0.00008309,-0.06328130,-0.03404723,0.00721434,0.01272146
 ,-0.00969471,0.00009024,0.00011899,-0.00014575,0.00011806,0.00000766,0
 .00008176,-0.00001116,0.00001507,0.00002459,-0.00000440,0.00002586,0.0
 0001610,0.00000875,0.00000311,0.00000058,0.00002613,0.00000771,-0.0000
 1572,-0.00001605,-0.00005833,0.00000878,-0.00673741,0.03335323,0.00116
 876,0.00003506,0.00003381,-0.00002197,-0.00008909,-0.00016195,-0.00000
 767,0.00001382,-0.00000666,0.00001504,-0.00001843,-0.00001427,0.015550
 61,-0.03334348,-0.18454434,0.01157796,-0.00906172,-0.01466513,-0.00007
 250,0.00010191,0.00010393,0.00003490,0.00000889,0.00002545,0.00001040,
 -0.00001628,0.00000800,-0.00001046,0.00000447,-0.00000075,0.00000440,-
 0.00000646,-0.00000424,0.00000891,-0.00001152,-0.00000765,-0.00001622,
 0.00002930,0.00002859,-0.00601546,0.05297303,0.23880468,0.00103616,-0.
 00175512,-0.00915724,-0.00003976,0.00005703,-0.00001163,-0.00034577,0.
 00002731,0.00002103,0.00012248,-0.00002652,-0.00006140,-0.03152965,0.0
 1819890,-0.01472047,-0.08523694,0.04267472,-0.06925065,-0.00009878,0.0
 0016208,-0.00021006,0.00020646,-0.00040949,-0.00033205,0.00001796,0.00
 001541,0.00008933,-0.00008344,0.00007610,0.00035469,0.00005343,-0.0000
 2619,0.00004152,0.00009935,-0.00002872,-0.00000774,-0.00010956,0.00003
 027,0.00012994,-0.00032079,-0.00053936,0.00061483,0.11298998,-0.005558
 35,0.00550933,-0.01128343,-0.00020091,-0.00023499,-0.00004741,0.000117
 89,-0.00027162,-0.00004823,0.00000845,0.00010059,0.00007090,0.01136248
 ,-0.00136997,0.00431195,0.04400478,-0.06605254,0.05450680,-0.00000652,
 -0.00090746,-0.00152509,-0.00054108,0.00026435,-0.00096537,-0.00004997
 ,0.00003467,0.00007573,0.00005063,0.00015906,-0.00008709,-0.00000520,0
 .00005043,-0.00004582,-0.00000180,0.00012898,-0.00008428,0.00003084,-0
 .00011032,-0.00008642,0.00020004,0.00017829,-0.00010784,-0.05563505,0.
 07708963,-0.01388875,-0.00097020,-0.03173763,0.00018154,-0.00011566,-0
 .00074356,-0.00000982,0.00017339,0.00034384,-0.00020561,-0.00006969,-0
 .00023946,-0.00482929,-0.00108883,0.00644382,-0.07055744,0.05415742,-0
 .12600684,-0.00014931,-0.00149038,-0.00200516,-0.00039734,-0.00030456,
 0.00018304,-0.00000443,0.00003472,-0.00010180,0.00040496,-0.00015908,-
 0.00028853,0.00005215,-0.00000040,-0.00001216,-0.00001123,-0.00020860,
 -0.00007719,0.00004797,0.00001176,0.00009178,0.00089764,-0.00004317,-0
 .00001269,0.08813279,-0.06140653,0.15947600,0.00192390,-0.00681971,-0.
 00346402,-0.00001579,0.00073062,0.00048086,-0.00045023,-0.00008251,0.0
 0004539,0.00020394,-0.00003947,-0.00000357,-0.02830474,-0.02201649,0.0
 1377773,-0.06702191,-0.07159844,0.01700421,-0.00018705,-0.00029156,-0.
 00027073,0.00017771,-0.00016151,0.00003127,0.00011659,-0.00001772,0.00
 034732,-0.00008998,0.00033576,0.00021958,0.00004895,0.00001178,0.00003
 652,0.00007918,0.00002319,-0.00001030,-0.00018038,0.00008212,0.0001614
 9,-0.00027669,0.00204434,0.00039173,0.00610676,0.00640057,-0.00312331,
 0.08838288,-0.00917590,-0.02616344,-0.01056837,0.00088940,-0.00099817,
 -0.00119923,-0.00022389,0.00001895,0.00053780,-0.00020109,0.00006169,-
 0.00030800,-0.01442012,0.00303765,0.00281865,-0.06744251,-0.16425292,0
 .03188954,-0.00036143,0.00003775,-0.00028753,-0.00022089,-0.00112454,-
 0.00146291,0.00021791,0.00014655,-0.00044437,0.00028574,-0.00015923,-0
 .00019199,0.00006727,0.00005853,-0.00001283,0.00001011,-0.00013344,-0.
 00008863,0.00000310,-0.00018786,0.00013082,0.00044291,-0.00064008,-0.0
 0001889,-0.00214937,-0.01481362,0.01066435,0.08908221,0.20584276,-0.00
 803199,-0.02141783,-0.00032828,0.00048330,-0.00127046,-0.00085050,0.00
 007780,0.00037731,0.00010447,-0.00013851,-0.00023968,-0.00012391,0.011
 86759,0.00759555,0.00020970,0.01796442,0.03438369,-0.04025712,-0.00024
 688,-0.00060169,-0.00015364,-0.00004346,-0.00146688,-0.00189890,0.0003
 7657,-0.00003129,-0.00061848,0.00021080,-0.00024027,0.00005725,0.00003
 004,-0.00004457,0.00000957,-0.00004176,-0.00017795,0.00000403,0.000044
 60,0.00021735,0.00018447,0.00017729,-0.00085981,-0.00019061,0.00267356
 ,0.01719110,-0.00563349,-0.02508734,-0.03305861,0.05043966,-0.00025279
 ,-0.00008061,-0.00022494,-0.00003687,0.00007709,-0.00007893,0.00009649
 ,-0.00043630,-0.00074575,-0.01429159,0.02161096,0.01100028,0.00077410,
 -0.00004795,0.00022184,-0.00043061,0.00005163,0.00017896,0.00038766,0.
 00007839,-0.00037656,0.00006975,0.00000832,0.00000624,-0.00026495,0.00
 000297,-0.00024880,-0.00004587,-0.00002688,-0.00004271,0.00000850,0.00
 004267,0.00014358,-0.00005977,0.00006215,-0.00015028,-0.08050517,0.038
 55663,0.06923302,-0.00009188,0.00000903,0.00000446,0.00003419,0.000009
 51,-0.00001195,0.00006060,0.00001298,-0.00005191,0.09737767,0.00009072
 ,-0.00033285,0.00019571,0.00011798,-0.00003660,0.00021046,-0.00106341,
 -0.00046568,0.00015332,0.02335871,-0.01987910,-0.01212434,-0.00023065,
 0.00017902,-0.00018032,0.00009708,-0.00031890,-0.00000902,-0.00009868,
 0.00041555,0.00009715,0.00005242,0.00002867,0.00013885,-0.00008843,0.0
 0015819,-0.00008875,0.00001483,0.00003562,0.00001373,0.00010214,-0.000
 14843,-0.00016219,0.00024520,0.00017734,0.00019881,0.03840712,-0.06180
 167,-0.05694642,0.00003934,0.00003728,-0.00001524,0.00000169,0.0000244
 0,-0.00000780,-0.00004042,0.00009462,-0.00009813,-0.05645293,0.0790621
 2,-0.00056883,-0.00018122,-0.00058034,-0.00005367,0.00021200,0.0002946
 2,-0.00038267,0.00038079,-0.00187432,0.00421723,-0.00466319,0.00989522
 ,-0.00001884,-0.00005292,-0.00053700,0.00039653,-0.00007807,0.00044044
 ,0.00083692,-0.00051229,0.00196228,0.00001251,0.00020809,-0.00003041,-
 0.00027442,-0.00000973,-0.00008706,0.00000832,-0.00000338,-0.00003098,
 0.00016309,-0.00018301,0.00014489,-0.00026385,-0.00008806,0.00039305,0
 .06725909,-0.05503390,-0.13223646,0.00000246,0.00000420,-0.00001881,-0
 .00008964,0.00006313,-0.00002730,-0.00014276,-0.00005238,-0.00011043,-
 0.08502307,0.06915813,0.15150697,-0.00005572,-0.00004698,0.00005207,0.
 00006292,-0.00003526,0.00003602,-0.00002535,0.00084679,-0.00011115,-0.
 02009931,0.00769948,-0.02095158,0.00033560,-0.00002499,0.00003362,-0.0
 0017129,0.00002428,0.00010067,0.00010274,0.00003491,-0.00002584,0.0000
 4564,0.00000675,-0.00000365,-0.00002322,-0.00001090,-0.00002466,-0.000
 02013,-0.00001047,-0.00001850,-0.00008259,0.00020345,-0.00012204,-0.00
 004966,-0.00004071,-0.00050021,-0.11333649,-0.03531797,-0.08173296,-0.
 00003859,0.00000647,0.00000089,0.00001306,0.00000161,-0.00001166,0.000
 01797,-0.00000252,-0.00002581,0.00718328,0.00165012,0.00291791,0.13844
 225,0.00000115,-0.00005744,0.00000025,-0.00004484,0.00005193,-0.000132
 49,0.00092652,-0.00202840,-0.00029098,0.01782305,0.00570466,0.01729205
 ,-0.00004823,0.00004641,-0.00004003,0.00001961,-0.00006878,0.00001237,
 -0.00001103,0.00006829,-0.00001310,0.00001287,0.00002758,0.00001979,-0
 .00000586,0.00003889,-0.00000730,-0.00000503,0.00001295,-0.00001244,0.
 00011097,-0.00032556,0.00030485,0.00018811,0.00025834,0.00027661,-0.03
 678924,-0.05205519,-0.03787303,0.00000892,0.00000791,-0.00000342,0.,0.
 00001183,-0.00000390,-0.00000630,0.00002054,-0.00001786,-0.00403726,-0
 .00158735,-0.01075270,0.03657832,0.05806179,0.00008688,-0.00003666,0.0
 0006668,0.00010678,-0.00002382,0.00010324,-0.00017509,0.00015140,0.000
 45555,-0.01823657,0.00644809,-0.01076086,0.00005309,-0.00004848,-0.000
 14864,0.00004382,0.00005716,0.00015417,-0.00007954,-0.00001158,-0.0001
 5507,-0.00001489,0.00003102,-0.00005742,-0.00006189,-0.00001849,-0.000
 02116,-0.00003275,-0.00000965,-0.00001173,-0.00024134,0.00012870,-0.00
 005261,-0.00011424,0.00019744,-0.00006858,-0.08274687,-0.03627564,-0.1
 2125498,-0.00000787,-0.00000549,-0.00000635,-0.00002579,0.00000659,-0.
 00002549,-0.00002986,-0.00002963,-0.00003106,-0.00810431,-0.01120775,-
 0.01801866,0.10851418,0.04028716,0.14355957,-0.00009743,-0.00004559,-0
 .00006705,0.00006318,0.00010138,0.00010861,-0.00134620,-0.00073136,0.0
 0042322,0.01069528,0.00816717,-0.00418402,0.00018669,-0.00000466,0.000
 09281,-0.00014604,-0.00003174,-0.00002121,0.00007605,-0.00000926,0.000
 09338,0.00000439,-0.00000056,0.00003789,0.00004282,0.00002076,-0.00011
 668,0.00001337,0.00001972,-0.00002387,0.00012797,0.00012694,-0.0002959
 9,0.00038564,0.00052530,0.00041645,-0.09120155,-0.07543675,0.03990644,
 -0.00001933,0.00000389,0.00000382,0.00002415,0.00000241,0.00000006,0.0
 0004533,0.00002238,-0.00001235,-0.00870375,-0.00709500,0.01186151,-0.0
 1184205,-0.01451992,0.00088705,0.10373529,-0.00002193,-0.00011329,-0.0
 0005577,-0.00006763,0.00006370,0.00017434,-0.00094812,0.00087510,-0.00
 131300,-0.00094067,-0.03296658,0.01932243,-0.00010349,0.00009272,-0.00
 001926,0.00003034,-0.00018084,-0.00004656,0.00000788,0.00010330,0.0000
 4378,-0.00001040,0.00001584,0.00005629,0.00001889,0.00013985,-0.000069
 80,0.00003806,0.00002896,0.00000237,0.00024628,-0.00013159,0.00002165,
 -0.00040720,-0.00086644,-0.00016833,-0.07535760,-0.12670357,0.05267228
 ,0.00002160,0.00001425,-0.00000557,0.00000715,0.00002306,0.00000730,0.
 00000703,0.00007727,-0.00003881,0.00037765,0.00587354,0.00039727,-0.01
 181689,-0.00684958,0.00013940,0.08757098,0.16149619,0.00002634,-0.0002
 0581,0.00005611,0.00022427,0.00008827,0.00023416,-0.00018995,-0.000902
 00,-0.00013279,0.00238134,0.01742614,-0.00363625,0.00016858,-0.0000248
 6,-0.00016252,-0.00001301,-0.00001008,0.00022592,0.00003469,0.00011316
 ,-0.00016749,0.00000433,0.00006342,-0.00001579,-0.00021162,0.00000324,
 -0.00017716,-0.00004843,-0.00000890,-0.00002162,-0.00014111,-0.0000393
 6,0.00010153,0.00007336,0.00058263,0.00036030,0.03945124,0.05367145,-0
 .06260818,-0.00001991,0.00000416,-0.00000922,-0.00002376,0.00001977,-0
 .00003342,-0.00003033,-0.00001063,-0.00007838,0.01571858,0.00934556,-0
 .01006971,-0.00840263,-0.00844087,0.00631873,-0.04820686,-0.07179796,0
 .07019341,-0.00052879,0.00031096,-0.00144151,0.00030565,-0.00022956,-0
 .00010429,0.00024503,0.00053142,0.00140268,-0.00124008,-0.00037828,-0.
 00131447,-0.50659134,-0.01524016,-0.34643606,-0.07662967,0.00814224,-0
 .01380915,-0.00137783,0.00011954,0.00062432,-0.00051431,-0.00051513,-0
 .00013083,-0.00002748,0.00013149,-0.00027207,0.00021580,-0.00017674,-0
 .00010420,0.00009529,0.00009778,-0.00010096,-0.00012255,-0.00072900,-0
 .00045687,0.00082702,-0.00015377,0.00044220,-0.00897125,-0.00150325,-0
 .02324103,-0.00288984,-0.00015248,0.00338769,-0.00057497,0.00308927,-0
 .00031439,-0.00044595,0.00006855,-0.00012726,-0.00022381,0.00001927,-0
 .00005296,-0.00010484,0.00005322,-0.00013173,0.59799197,0.00148457,-0.
 00002544,-0.00024631,0.00009569,0.00026400,0.00026024,0.00022840,0.000
 11656,-0.00022342,0.00001618,-0.00020679,0.00029188,-0.01161872,-0.055
 70323,-0.00937725,0.00884334,0.01636349,0.00026413,-0.00043245,-0.0006
 4129,0.00002368,-0.00049537,0.00015103,0.00001539,0.00006428,-0.000113
 70,-0.00000406,-0.00000115,-0.00001044,-0.00007357,-0.00006973,-0.0000
 1350,0.00003493,-0.00012690,0.00005263,0.00013279,-0.00001440,0.000409
 78,-0.00017468,-0.00531681,0.01723123,-0.01048299,-0.00069061,0.000267
 02,0.00061665,0.00239043,-0.00106189,-0.00039287,0.00000098,-0.0002626
 2,0.00004017,-0.00000680,-0.00006764,0.00005706,0.00000146,-0.00011141
 ,0.00000912,0.00560549,0.02341109,0.00300402,-0.00180806,-0.00083585,0
 .00037848,0.00012830,0.00054296,0.00044632,-0.00014336,0.00045996,-0.0
 0076345,0.00031774,-0.00023338,-0.32999753,-0.01153611,-0.31098701,-0.
 01409474,-0.00008330,0.01704948,-0.00175526,0.00073947,-0.00037557,-0.
 00031349,0.00023284,-0.00005345,-0.00010156,0.00001661,-0.00014932,0.0
 0009178,-0.00005602,-0.00020315,-0.00007199,0.00012620,-0.00002580,-0.
 00011196,0.00006103,-0.00008051,0.00083818,-0.00051698,-0.00057351,-0.
 03975903,-0.00814388,-0.03937567,0.00182068,-0.00056655,0.00022038,-0.
 00030150,0.00151381,-0.00085208,-0.00045487,0.00021734,0.00055644,-0.0
 0010550,0.00005522,0.00015948,-0.00014193,0.00001435,0.00013298,0.3812
 4042,0.01942239,0.33450481,0.00021604,0.00015937,0.00049698,-0.0006345
 6,-0.00381437,0.00396534,0.00883948,-0.05823312,0.01346730,-0.00410160
 ,0.02723154,-0.01281139,0.00002292,-0.00005814,-0.00023457,0.00010563,
 0.00010542,0.00032893,-0.00002151,-0.00010825,-0.00031549,-0.00010722,
 0.00003285,-0.00018580,-0.00023088,-0.00071123,-0.00086935,-0.00002913
 ,0.00033905,0.00031008,0.00099679,0.00777621,-0.00422289,-0.00241099,0
 .04882375,0.01698863,0.00506778,0.00083926,-0.00629087,-0.00001013,-0.
 00001326,-0.00001293,-0.00007550,0.00004300,-0.00004057,-0.00006535,-0
 .00003144,-0.00005298,0.00084841,-0.00154999,0.00033136,0.00038503,-0.
 00018940,0.00054562,-0.00055027,0.00016694,0.00006407,-0.00002503,0.00
 008799,0.00023632,0.08770822,-0.00010844,0.00044923,-0.00020905,-0.000
 08507,-0.00112658,0.00129075,-0.00676963,-0.04316334,-0.00302487,0.023
 39451,-0.11848144,0.00867768,-0.00095386,0.00006250,0.00040096,0.00041
 228,-0.00013044,-0.00100553,-0.00017735,-0.00000939,0.00048404,-0.0000
 9477,-0.00044596,0.00024209,0.00024767,-0.00015327,-0.00019867,0.00030
 847,-0.00004327,0.00031314,0.00128021,0.00101462,-0.00154753,0.0021168
 1,-0.01573931,-0.02586404,0.00233609,-0.00699833,-0.00201332,0.0001185
 6,-0.00001085,0.00002215,0.00005344,-0.00013342,0.00016774,0.00003114,
 0.00009179,0.00019989,-0.00051477,-0.00005563,0.00113275,-0.00163197,-
 0.00024968,-0.00148043,0.00066577,0.00060684,-0.00041526,0.00059448,-0
 .00001531,-0.00029913,-0.09417475,0.30982468,0.00041395,0.00009333,0.0
 0066276,-0.00181641,-0.00281363,0.00527883,0.00729423,-0.09955772,0.02
 316639,-0.01473522,0.00389193,-0.01867032,-0.00059230,0.00020673,-0.00
 005995,0.00025048,-0.00034044,-0.00006586,-0.00019193,0.00018366,-0.00
 044561,-0.00011222,0.00023812,0.00009882,-0.00003794,-0.00072231,-0.00
 103345,0.00020198,0.00052769,0.00041717,0.00520839,0.00966205,-0.00661
 580,0.01668615,0.06714760,-0.00079309,-0.00314423,0.00058675,0.0041955
 1,0.00008144,0.00001752,0.00000188,-0.00000848,0.00008202,0.00005740,-
 0.00003175,0.00008527,-0.00001603,0.00016341,-0.00003265,-0.00083149,0
 .00093708,-0.00040143,0.00009964,0.00052502,-0.00131328,-0.00019599,0.
 00034682,-0.00017023,0.00018192,0.03670733,-0.02029016,0.05591778,0.00
 001832,0.00008069,-0.00030951,-0.00222760,0.00564338,-0.00530451,-0.01
 398629,-0.00406149,-0.04623605,-0.09001596,-0.08635872,-0.04415220,-0.
 00096760,0.00008376,0.00019379,0.00054403,-0.00019359,-0.00079951,-0.0
 0026807,0.00004879,0.00024755,-0.00011867,-0.00035596,0.00015216,0.000
 29448,0.00102150,0.00079163,0.00023068,-0.00085645,-0.00070148,-0.0002
 7935,-0.00736411,0.00342606,-0.01696965,-0.02578661,-0.03380925,0.0046
 7443,0.01634438,0.01003616,0.00012637,-0.00000511,0.00001162,0.0000259
 4,-0.00008097,0.00013610,0.00000326,0.00010606,0.00014132,-0.00171138,
 0.00237359,-0.00106223,-0.00062028,-0.00003137,-0.00031331,-0.00138855
 ,0.00112841,-0.00072777,0.00058738,-0.00004599,-0.00008525,-0.09592928
 ,0.07294884,-0.04814541,0.21797868,0.00042914,0.00000288,0.00041786,-0
 .00168835,-0.00008672,0.00188548,-0.03174674,-0.02854409,-0.04103917,-
 0.08534253,-0.24305612,-0.11151242,-0.00055687,0.00007538,-0.00021309,
 0.00043209,-0.00012380,0.00003680,-0.00025509,-0.00000538,-0.00052435,
 -0.00015457,0.00004571,-0.00007471,-0.00001759,0.00000129,-0.00046081,
 0.00010747,0.00004993,0.00005576,0.00160426,-0.00249986,-0.00043524,0.
 00197938,0.01696300,0.01486950,0.01304848,-0.04859475,0.00338843,0.000
 07686,-0.00000200,-0.00000766,-0.00004361,0.00005228,0.00003510,-0.000
 06484,0.00004698,-0.00000804,0.00069557,-0.00119729,0.00001467,0.00189
 384,-0.00102158,0.00164399,0.00064729,-0.00148681,0.00052832,0.0003175
 4,-0.00003332,0.00030974,0.07327777,-0.12529254,0.04291844,0.02536343,
 0.43470447,0.00010386,0.00019639,-0.00010514,-0.00176407,0.00075895,-0
 .00157707,-0.04511461,-0.00004619,-0.03507236,-0.04701380,-0.10999756,
 -0.09468004,-0.00097154,0.00007910,0.00018264,0.00049902,-0.00017411,-
 0.00073810,-0.00025826,0.00000219,0.00018679,-0.00014117,-0.00030860,0
 .00014327,0.00016059,0.00048220,0.00020082,0.00021962,-0.00034488,-0.0
 0013749,-0.00203749,-0.00852948,0.00071887,-0.02703569,-0.02113716,-0.
 03589981,0.00751493,0.00458268,0.00919462,0.00012242,-0.00000809,0.000
 01193,0.00002067,-0.00007437,0.00012841,-0.00000043,0.00009327,0.00013
 371,-0.00115655,0.00114379,-0.00074092,-0.00055638,-0.00025815,-0.0003
 0426,-0.00128671,0.00197689,-0.00031459,0.00059233,-0.00002314,-0.0000
 6425,-0.04840446,0.04341470,-0.06135028,0.16650829,0.08817183,0.220083
 32\\-0.00000022,0.,-0.00000012,0.00000008,0.,-0.00000017,-0.00000002,-
 0.00000024,0.00000031,0.00000043,-0.00000023,0.00000020,0.00000080,0.0
 0000012,0.00000153,0.00000033,-0.00000034,-0.00000023,-0.00000077,0.00
 000018,-0.00000052,-0.00000025,-0.00000101,0.00000033,0.00000018,0.000
 00076,-0.00000034,0.00000072,-0.00000016,0.00000052,0.00000068,-0.0000
 0015,-0.00000024,0.00000012,-0.00000012,0.00000043,-0.00000076,0.00000
 073,-0.00000040,0.00000006,0.00000007,0.00000027,0.00000096,-0.0000006
 6,0.00000105,0.00000076,0.00000133,-0.00000035,-0.00000056,0.00000036,
 0.00000038,-0.00000035,0.00000007,-0.00000031,0.00000040,0.00000066,-0
 .00000046,-0.00000264,-0.00000002,-0.00000160,0.00000036,-0.00000127,0
 .00000004,-0.00000033,-0.00000012,-0.00000032\\\@


            ARSENIC

 FOR SMELTER FUMES HAVE I BEEN NAMED,
    I AM AN EVIL POISONOUS SMOKE...
 BUT WHEN FROM POISON I AM FREED,
    THROUGH ART AND SLEIGHT OF HAND,
 THEN CAN I CURE BOTH MAN AND BEAST,
    FROM DIRE DISEASE OFTTIMES DIRECT THEM;
 BUT PREPARE ME CORRECTLY, AND TAKE GREAT CARE
    THAT YOU FAITHFULLY KEEP WATCHFUL GUARD OVER ME;
 FOR ELSE I AM POISON, AND POISON REMAIN,
    THAT PIERCES THE HEART OF MANY A ONE.

 ATTRIBUTED TO THE PROBABLY MYTHICAL 15TH
 CENTURY MONK, BASILIUS VALENTINUS
 Job cpu time:       0 days  0 hours  0 minutes 32.0 seconds.
 File lengths (MBytes):  RWF=     50 Int=      0 D2E=      0 Chk=      2 Scr=      1
 Normal termination of Gaussian 09 at Tue Feb 16 04:14:48 2021.
