 Entering Gaussian System, Link 0=g09
 Initial command:
 /cm/shared/apps/Gaussian09/g09/l1.exe "/local/Gau-5260.inp" -scrdir="/local/"
 Entering Link 1 = /cm/shared/apps/Gaussian09/g09/l1.exe PID=      5261.
  
 Copyright (c) 1988,1990,1992,1993,1995,1998,2003,2009,2013,
            Gaussian, Inc.  All Rights Reserved.
  
 This is part of the Gaussian(R) 09 program.  It is based on
 the Gaussian(R) 03 system (copyright 2003, Gaussian, Inc.),
 the Gaussian(R) 98 system (copyright 1998, Gaussian, Inc.),
 the Gaussian(R) 94 system (copyright 1995, Gaussian, Inc.),
 the Gaussian 92(TM) system (copyright 1992, Gaussian, Inc.),
 the Gaussian 90(TM) system (copyright 1990, Gaussian, Inc.),
 the Gaussian 88(TM) system (copyright 1988, Gaussian, Inc.),
 the Gaussian 86(TM) system (copyright 1986, Carnegie Mellon
 University), and the Gaussian 82(TM) system (copyright 1983,
 Carnegie Mellon University). Gaussian is a federally registered
 trademark of Gaussian, Inc.
  
 This software contains proprietary and confidential information,
 including trade secrets, belonging to Gaussian, Inc.
  
 This software is provided under written license and may be
 used, copied, transmitted, or stored only in accord with that
 written license.
  
 The following legend is applicable only to US Government
 contracts under FAR:
  
                    RESTRICTED RIGHTS LEGEND
  
 Use, reproduction and disclosure by the US Government is
 subject to restrictions as set forth in subparagraphs (a)
 and (c) of the Commercial Computer Software - Restricted
 Rights clause in FAR 52.227-19.
  
 Gaussian, Inc.
 340 Quinnipiac St., Bldg. 40, Wallingford CT 06492
  
  
 ---------------------------------------------------------------
 Warning -- This program may not be used in any manner that
 competes with the business of Gaussian, Inc. or will provide
 assistance to any competitor of Gaussian, Inc.  The licensee
 of this program is prohibited from giving any competitor of
 Gaussian, Inc. access to this program.  By using this program,
 the user acknowledges that Gaussian, Inc. is engaged in the
 business of creating and licensing software in the field of
 computational chemistry and represents and warrants to the
 licensee that it is not a competitor of Gaussian, Inc. and that
 it will not use this program in any manner prohibited above.
 ---------------------------------------------------------------
  

 Cite this work as:
 Gaussian 09, Revision D.01,
 M. J. Frisch, G. W. Trucks, H. B. Schlegel, G. E. Scuseria, 
 M. A. Robb, J. R. Cheeseman, G. Scalmani, V. Barone, B. Mennucci, 
 G. A. Petersson, H. Nakatsuji, M. Caricato, X. Li, H. P. Hratchian, 
 A. F. Izmaylov, J. Bloino, G. Zheng, J. L. Sonnenberg, M. Hada, 
 M. Ehara, K. Toyota, R. Fukuda, J. Hasegawa, M. Ishida, T. Nakajima, 
 Y. Honda, O. Kitao, H. Nakai, T. Vreven, J. A. Montgomery, Jr., 
 J. E. Peralta, F. Ogliaro, M. Bearpark, J. J. Heyd, E. Brothers, 
 K. N. Kudin, V. N. Staroverov, T. Keith, R. Kobayashi, J. Normand, 
 K. Raghavachari, A. Rendell, J. C. Burant, S. S. Iyengar, J. Tomasi, 
 M. Cossi, N. Rega, J. M. Millam, M. Klene, J. E. Knox, J. B. Cross, 
 V. Bakken, C. Adamo, J. Jaramillo, R. Gomperts, R. E. Stratmann, 
 O. Yazyev, A. J. Austin, R. Cammi, C. Pomelli, J. W. Ochterski, 
 R. L. Martin, K. Morokuma, V. G. Zakrzewski, G. A. Voth, 
 P. Salvador, J. J. Dannenberg, S. Dapprich, A. D. Daniels, 
 O. Farkas, J. B. Foresman, J. V. Ortiz, J. Cioslowski, 
 and D. J. Fox, Gaussian, Inc., Wallingford CT, 2013.
 
 ******************************************
 Gaussian 09:  ES64L-G09RevD.01 24-Apr-2013
                16-Feb-2021 
 ******************************************
 %nprocshared=1
 Will use up to    1 processors via shared memory.
 ----------------------------------------------------------------------
 #P upm6 scf=qc opt(calcall, ts, noeigentest, cartesian,maxcycle=100) N
 oSymm, guess=mix
 ----------------------------------------------------------------------
 1/5=1,6=100,10=4,11=1,14=-1,18=10,26=1,38=1/1,3;
 2/12=2,15=1,17=6,18=5,29=2,40=1/2;
 3/5=2,16=1,25=1,41=3900000,71=2,116=2,140=1/1,2,3;
 4/13=-1,35=1/1;
 5/5=2,8=3,35=1,38=5/8;
 8/6=4,10=90,11=11/1;
 11/6=1,8=1,9=11,15=111,16=1,31=1/1,2,10;
 10/6=1,31=1/2;
 6/7=2,8=2,9=2,10=2,18=1,28=1/1;
 7/7=1,10=1,25=1,30=1/1,2,3,16;
 1/5=1,6=100,10=4,11=1,14=-1,18=10,26=1/3(3);
 2/15=1,29=1/2;
 7/7=1,8=1,9=1,25=1,30=1,44=-1/16;
 99/12=1/99;
 2/15=1,29=1/2;
 3/5=2,16=1,25=1,41=3900000,71=2,116=2,135=20,140=1/1,2,3;
 4/5=5,16=3,35=1/1;
 5/5=2,8=3,35=1,38=5/8;
 8/6=4,10=90,11=11/1;
 11/6=1,8=1,9=11,15=111,16=1,31=1/1,2,10;
 10/6=1,31=1/2;
 7/7=1,10=1,25=1,30=1/1,2,3,16;
 1/5=1,6=100,10=4,11=1,14=-1,18=10,26=1/3(-8);
 2/15=1,29=1/2;
 6/7=2,8=2,9=2,10=2,18=1,19=2,28=1/1;
 7/7=1,8=1,9=1,25=1,30=1,44=-1/16;
 99/12=1/99;
 Leave Link    1 at Tue Feb 16 04:42:25 2021, MaxMem=           0 cpu:         0.0
 (Enter /cm/shared/apps/Gaussian09/g09/l101.exe)
 ------------------------------
 Gaussian input prepared by ASE
 ------------------------------
 Symbolic Z-matrix:
 Charge =  0 Multiplicity = 1
 C                     5.46167  -4.67223   0.7897 
 C                     6.77216  -4.57953  -0.00502 
 C                     6.79598  -5.53423  -1.16478 
 C                     5.78627  -5.48313  -2.16712 
 C                     4.08701  -3.47652   2.53908 
 C                     5.48034  -3.77781   2.03371 
 H                     4.60042  -4.38788   0.14708 
 H                     5.27022  -5.72278   1.08529 
 H                     6.92715  -3.54034  -0.36093 
 H                     7.6303   -4.80045   0.66311 
 H                     7.80728  -5.79457  -1.51933 
 H                     6.62611  -6.87559  -0.96261 
 C                     4.954    -4.38021  -2.66657 
 H                     4.02225  -3.2115    3.60726 
 H                     6.09356  -4.24207   2.83049 
 H                     5.9795   -2.81047   1.80745 
 H                     4.38058  -3.91554  -1.83896 
 H                     4.22212  -4.69847  -3.4274 
 H                     5.56933  -3.57781  -3.10798 
 O                     3.10393  -3.49936   1.83331 
 O                     6.18281  -7.65628  -2.08437 
 O                     5.44289  -6.69171  -2.66861 
 
 NAtoms=     22 NQM=       22 NQMF=       0 NMMI=      0 NMMIF=      0
                NMic=       0 NMicF=      0.
                    Isotopes and Nuclear Properties:
 (Nuclear quadrupole moments (NQMom) in fm**2, nuclear magnetic moments (NMagM)
  in nuclear magnetons)

  Atom         1           2           3           4           5           6           7           8           9          10
 IAtWgt=          12          12          12          12          12          12           1           1           1           1
 AtmWgt=  12.0000000  12.0000000  12.0000000  12.0000000  12.0000000  12.0000000   1.0078250   1.0078250   1.0078250   1.0078250
 NucSpn=           0           0           0           0           0           0           1           1           1           1
 AtZEff=   0.0000000   0.0000000   0.0000000   0.0000000   0.0000000   0.0000000   0.0000000   0.0000000   0.0000000   0.0000000
 NQMom=    0.0000000   0.0000000   0.0000000   0.0000000   0.0000000   0.0000000   0.0000000   0.0000000   0.0000000   0.0000000
 NMagM=    0.0000000   0.0000000   0.0000000   0.0000000   0.0000000   0.0000000   2.7928460   2.7928460   2.7928460   2.7928460
 AtZNuc=   6.0000000   6.0000000   6.0000000   6.0000000   6.0000000   6.0000000   1.0000000   1.0000000   1.0000000   1.0000000

  Atom        11          12          13          14          15          16          17          18          19          20
 IAtWgt=           1           1          12           1           1           1           1           1           1          16
 AtmWgt=   1.0078250   1.0078250  12.0000000   1.0078250   1.0078250   1.0078250   1.0078250   1.0078250   1.0078250  15.9949146
 NucSpn=           1           1           0           1           1           1           1           1           1           0
 AtZEff=   0.0000000   0.0000000   0.0000000   0.0000000   0.0000000   0.0000000   0.0000000   0.0000000   0.0000000   0.0000000
 NQMom=    0.0000000   0.0000000   0.0000000   0.0000000   0.0000000   0.0000000   0.0000000   0.0000000   0.0000000   0.0000000
 NMagM=    2.7928460   2.7928460   0.0000000   2.7928460   2.7928460   2.7928460   2.7928460   2.7928460   2.7928460   0.0000000
 AtZNuc=   1.0000000   1.0000000   6.0000000   1.0000000   1.0000000   1.0000000   1.0000000   1.0000000   1.0000000   8.0000000

  Atom        21          22
 IAtWgt=          16          16
 AtmWgt=  15.9949146  15.9949146
 NucSpn=           0           0
 AtZEff=   0.0000000   0.0000000
 NQMom=    0.0000000   0.0000000
 NMagM=    0.0000000   0.0000000
 AtZNuc=   8.0000000   8.0000000
 Leave Link  101 at Tue Feb 16 04:42:25 2021, MaxMem=    33554432 cpu:         0.1
 (Enter /cm/shared/apps/Gaussian09/g09/l103.exe)

 GradGradGradGradGradGradGradGradGradGradGradGradGradGradGradGradGradGrad
 Berny optimization.
 Initialization pass.
 No Z-matrix variables, so optimization will use Cartesian coordinates.
 Trust Radius=3.00D-01 FncErr=1.00D-07 GrdErr=1.00D-07
 Number of steps in this run=    100 maximum allowed number of steps=    132.
 Search for a saddle point of order  1.
 GradGradGradGradGradGradGradGradGradGradGradGradGradGradGradGradGradGrad

 Leave Link  103 at Tue Feb 16 04:42:25 2021, MaxMem=    33554432 cpu:         0.0
 (Enter /cm/shared/apps/Gaussian09/g09/l202.exe)
 ---------------------------------------------------------------------------------------------------
                            Z-MATRIX (ANGSTROMS AND DEGREES)
   CD    Cent   Atom    N1       Length/X        N2       Alpha/Y        N3        Beta/Z          J
 ---------------------------------------------------------------------------------------------------
      1      1  C        0   5.461667         -4.672230          0.789698
      2      2  C        0   6.772155         -4.579526         -0.005018
      3      3  C        0   6.795985         -5.534227         -1.164779
      4      4  C        0   5.786265         -5.483131         -2.167119
      5      5  C        0   4.087012         -3.476522          2.539082
      6      6  C        0   5.480339         -3.777807          2.033709
      7      7  H        0   4.600420         -4.387880          0.147075
      8      8  H        0   5.270218         -5.722782          1.085291
      9      9  H        0   6.927151         -3.540337         -0.360927
     10     10  H        0   7.630303         -4.800446          0.663110
     11     11  H        0   7.807281         -5.794572         -1.519334
     12     12  H        0   6.626114         -6.875586         -0.962608
     13     13  C        0   4.954004         -4.380215         -2.666567
     14     14  H        0   4.022254         -3.211502          3.607261
     15     15  H        0   6.093565         -4.242072          2.830489
     16     16  H        0   5.979497         -2.810472          1.807449
     17     17  H        0   4.380583         -3.915536         -1.838964
     18     18  H        0   4.222120         -4.698469         -3.427397
     19     19  H        0   5.569328         -3.577805         -3.107981
     20     20  O        0   3.103928         -3.499364          1.833313
     21     21  O        0   6.182814         -7.656283         -2.084372
     22     22  O        0   5.442890         -6.691713         -2.668613
 ---------------------------------------------------------------------------------------------------
                         Z-Matrix orientation:                         
 ---------------------------------------------------------------------
 Center     Atomic      Atomic             Coordinates (Angstroms)
 Number     Number       Type             X           Y           Z
 ---------------------------------------------------------------------
      1          6           0        5.461667   -4.672230    0.789698
      2          6           0        6.772155   -4.579526   -0.005018
      3          6           0        6.795985   -5.534227   -1.164779
      4          6           0        5.786265   -5.483131   -2.167119
      5          6           0        4.087012   -3.476522    2.539082
      6          6           0        5.480339   -3.777807    2.033709
      7          1           0        4.600420   -4.387880    0.147075
      8          1           0        5.270218   -5.722782    1.085291
      9          1           0        6.927151   -3.540337   -0.360927
     10          1           0        7.630303   -4.800446    0.663110
     11          1           0        7.807281   -5.794572   -1.519334
     12          1           0        6.626114   -6.875586   -0.962608
     13          6           0        4.954004   -4.380215   -2.666567
     14          1           0        4.022254   -3.211502    3.607261
     15          1           0        6.093565   -4.242072    2.830489
     16          1           0        5.979497   -2.810472    1.807449
     17          1           0        4.380583   -3.915536   -1.838964
     18          1           0        4.222120   -4.698469   -3.427397
     19          1           0        5.569328   -3.577805   -3.107981
     20          8           0        3.103928   -3.499364    1.833313
     21          8           0        6.182814   -7.656283   -2.084372
     22          8           0        5.442890   -6.691713   -2.668613
 ---------------------------------------------------------------------
                    Distance matrix (angstroms):
                    1          2          3          4          5
     1  C    0.000000
     2  C    1.535430   0.000000
     3  C    2.518615   1.502354   0.000000
     4  C    3.083130   2.542275   1.423668   0.000000
     5  C    2.525814   3.859929   5.029043   5.390943   0.000000
     6  C    1.532287   2.543216   3.878951   4.544081   1.512460
     7  H    1.111560   2.185473   2.802780   2.821577   2.610720
     8  H    1.108011   2.179822   2.725130   3.301804   2.925606
     9  H    2.180083   1.109328   2.153829   2.887629   4.059620
    10  H    2.176108   1.109783   2.139088   3.446263   4.222198
    11  H    3.477526   2.200222   1.102818   2.145024   5.973650
    12  H    3.046521   2.492027   1.367104   2.023641   5.501137
    13  C    3.505533   3.229434   2.641970   1.469194   5.354168
    14  H    3.484867   4.741519   5.988406   6.451007   1.102468
    15  H    2.179257   2.935040   4.257373   5.158561   2.167312
    16  H    2.184058   2.653845   4.113348   4.793499   2.135511
    17  H    2.941291   3.086075   2.984770   2.130958   4.409785
    18  H    4.395572   4.269602   3.527423   2.156512   6.091821
    19  H    4.049847   3.475430   3.017997   2.136013   5.839250
    20  O    2.832610   4.242888   5.173056   5.209004   1.210407
    21  O    4.205342   3.759983   2.392645   2.210585   6.575646
    22  O    4.004819   3.650071   2.330699   1.352802   6.268648
                    6          7          8          9         10
     6  C    0.000000
     7  H    2.169294   0.000000
     8  H    2.174069   1.763758   0.000000
     9  H    2.807835   2.527859   3.098393   0.000000
    10  H    2.747122   3.101079   2.568841   1.769449   0.000000
    11  H    4.701714   3.878100   3.636745   2.682930   2.404718
    12  H    4.459479   3.394630   2.713172   3.402430   2.820915
    13  C    4.767863   2.835782   3.997364   3.148758   4.292542
    14  H    2.218734   3.700139   3.771508   4.928801   4.920446
    15  H    1.107450   3.074321   2.432307   3.372304   2.714936
    16  H    1.111796   2.673371   3.083203   2.476410   2.827485
    17  H    4.028155   2.053238   3.550895   2.968228   4.195726
    18  H    5.679297   3.607829   4.744690   4.249906   5.325257
    19  H    5.146348   3.491474   4.719526   3.064538   4.468064
    20  O    2.401045   2.423293   3.193108   4.408333   4.852861
    21  O    5.700407   4.262134   3.823352   4.523860   4.218967
    22  O    5.532096   3.734368   3.880778   4.178471   4.411581
                   11         12         13         14         15
    11  H    0.000000
    12  H    1.695196   0.000000
    13  C    3.384928   3.453448   0.000000
    14  H    6.876093   6.410094   6.449416   0.000000
    15  H    4.926260   4.648289   5.615631   2.440446   0.000000
    16  H    4.828367   4.961500   4.851036   2.689042   1.763264
    17  H    3.921122   3.817369   1.108903   5.503220   4.984448
    18  H    4.206605   4.073599   1.102634   7.192874   6.547652
    19  H    3.527930   4.073669   1.103328   6.900876   5.998458
    20  O    6.215284   5.623330   4.944451   2.018187   3.237886
    21  O    2.534587   1.436787   3.547048   7.537824   5.985036
    22  O    2.777778   2.084294   2.362633   7.315509   6.055100
                   16         17         18         19         20
    16  H    0.000000
    17  H    4.132072   0.000000
    18  H    5.835796   1.777980   0.000000
    19  H    4.991842   1.771322   1.781259   0.000000
    20  O    2.957049   3.910072   5.510288   5.522747   0.000000
    21  O    6.218480   4.159501   3.794298   4.249485   6.489050
    22  O    5.948707   3.086093   2.457449   3.147293   5.994095
                   21         22
    21  O    0.000000
    22  O    1.348785   0.000000
 Symmetry turned off by external request.
 Stoichiometry    C7H12O3
 Framework group  C1[X(C7H12O3)]
 Deg. of freedom    60
 Full point group                 C1      NOp   1
 Rotational constants (GHZ):      2.3001396      0.5727022      0.5362126
 Leave Link  202 at Tue Feb 16 04:42:25 2021, MaxMem=    33554432 cpu:         0.0
 (Enter /cm/shared/apps/Gaussian09/g09/l301.exe)
 Standard basis: VSTO-6G (5D, 7F)
 Ernie: Thresh=  0.10000D-02 Tol=  0.10000D-05 Strict=F.
  NNHCO=     0 NNPyr=     0 NCTC=     0               EPep=         0.000000000
    EC=       257.733624422  ECS=         4.155405126   EG=         0.367460753
   EHC=         0.001021981  EAt=       -66.250074573  AtH=         3.187411664
 EPDDG=         0.000000000  ECC=       262.257512281 EAtT=        69.437486237
    52 basis functions,   312 primitive gaussians,    52 cartesian basis functions
    29 alpha electrons       29 beta electrons
       nuclear repulsion energy       331.6949985183 Hartrees.
 IExCor=    0 DFT=F Ex=HF Corr=None ExCW=0 ScaHFX=  1.000000
 ScaDFX=  1.000000  1.000000  1.000000  1.000000 ScalE2=  1.000000  1.000000
 IRadAn=      0 IRanWt=     -1 IRanGd=            0 ICorTp=0 IEmpDi=  4
 Integral buffers will be    131072 words long.
 Regular integral format.
 Two-electron integral symmetry is turned off.
 Leave Link  301 at Tue Feb 16 04:42:25 2021, MaxMem=    33554432 cpu:         0.0
 (Enter /cm/shared/apps/Gaussian09/g09/l302.exe)
 Do NDO integrals.
 NPDir=0 NMtPBC=     1 NCelOv=     1 NCel=       1 NClECP=     1 NCelD=      1
         NCelK=      1 NCelE2=     1 NClLst=     1 CellRange=     0.0.
 One-electron integrals computed using PRISM.
 NBasis=    52 RedAO= F EigKep=  0.00D+00  NBF=    52
 NBsUse=    52 1.00D-04 EigRej=  0.00D+00 NBFU=    52
 Leave Link  302 at Tue Feb 16 04:42:26 2021, MaxMem=    33554432 cpu:         0.1
 (Enter /cm/shared/apps/Gaussian09/g09/l303.exe)
 DipDrv:  MaxL=1.
 Leave Link  303 at Tue Feb 16 04:42:26 2021, MaxMem=    33554432 cpu:         0.0
 (Enter /cm/shared/apps/Gaussian09/g09/l401.exe)
 Simple Huckel Guess.
 JPrj=0 DoOrth=F DoCkMO=T.
 Mixing orbitals, IMix= 1 IMixAn=  0 NRI=1 NE=   29 Coef=  7.07106781D-01  7.07106781D-01
 Mixing orbitals, IMix= 1 IMixAn=  0 NRI=1 NE=   29 Coef= -7.07106781D-01  7.07106781D-01
 Initial guess <Sx>= 0.0000 <Sy>= 0.0000 <Sz>= 0.0000 <S**2>= 1.0000 S= 0.6180
 Leave Link  401 at Tue Feb 16 04:42:26 2021, MaxMem=    33554432 cpu:         0.0
 (Enter /cm/shared/apps/Gaussian09/g09/l508.exe)
 Direct SCF.
 Tight linear equation convergence will be used.
 UPM6 wavefunction.
 Quadratic Convergence SCF Method.
 Line search only if initial step raises energy.
 Two-electron integral symmetry not used.
 ReadGW:  IGet=1 IStart=       59293 Next=       59293 LGW=           0.
 Keep J ints in memory in canonical form, NReq=905730.
 FoFCou: FMM=F IPFlag=           0 FMFlag=           0 FMFlg1=           0
         NFxFlg=           0 DoJE=F BraDBF=F KetDBF=F FulRan=T
         wScrn=  0.000000 ICntrl=     600 IOpCl=  2 I1Cent=           0 NGrid=           0
         NMat0=    1 NMatS0=    112 NMatT0=    0 NMatD0=    1 NMtDS0=    0 NMtDT0=    0
 Symmetry not used in FoFCou.
 Iteration   1 EE= 0.790465597130947                                    Grad=5.887D-01 Max rot=   11.2623 deg.
 Gradient too large for Newton-Raphson -- use scaled steepest descent instead.
 Alpha Gap=     0.100 HL deriv= 1.96D+00
  Beta Gap=     0.126 HL deriv= 1.56D+00
     ILin= 1 X=0.000D+00 Y= 7.904655971309D-01 DE= 0.00D+00 F= -2.37D+00
     ILin= 2 X=3.000D-01 Y= 3.280642543019D-01 DE=-4.62D-01 F= -7.46D-01
     ILin= 3 X=4.000D-01 Y= 2.749888633896D-01 DE=-5.15D-01 F= -3.22D-01
     ILin= 4 X=6.000D-01 Y= 2.990758913546D-01 DE=-4.91D-01 F=  6.01D-01
     An  expanding polynomial of degree  4 produced  0.4696
 Iteration   2 EE= 0.262763993267868     Delta-E=       -0.527701603863 Grad=3.600D-01 Max rot=    3.4014 deg.
 Gradient too large for Newton-Raphson -- use scaled steepest descent instead.
 Alpha Gap=     0.304 HL deriv= 1.61D-01
  Beta Gap=     0.327 HL deriv= 8.04D-02
     ILin= 1 X=0.000D+00 Y= 2.627639932679D-01 DE= 0.00D+00 F= -3.46D-01
     ILin= 2 X=4.000D-01 Y= 1.409067638842D-01 DE=-1.22D-01 F= -2.61D-01
     ILin= 3 X=5.000D-01 Y= 1.158816430376D-01 DE=-1.47D-01 F= -2.39D-01
     ILin= 4 X=8.000D-01 Y= 5.473694687430D-02 DE=-2.08D-01 F= -1.68D-01
     ILin= 5 X=1.200D+00 Y= 7.676674454501D-03 DE=-2.55D-01 F= -6.61D-02
     ILin= 6 X=1.700D+00 Y= 8.551794806294D-03 DE=-2.54D-01 F=  7.12D-02
     An  expanding polynomial of degree  6 produced  1.4451
 Iteration   3 EE=-0.474704822295280E-03 Delta-E=       -0.263238698090 Grad=9.273D-02 Max rot=    0.9876 deg.
 Gradient too large for Newton-Raphson -- use scaled steepest descent instead.
 Alpha Gap=     0.357 HL deriv= 3.85D-02
  Beta Gap=     0.333 HL deriv= 5.18D-02
     ILin= 1 X=0.000D+00 Y=-4.747048222953D-04 DE= 0.00D+00 F= -2.59D-02
     ILin= 2 X=8.000D-01 Y=-1.584005184611D-02 DE=-1.54D-02 F= -1.24D-02
     Reject lnstep minimum 1.354D+00 FVal=-2.187570116795D-02 Lims=  0.00D+00  8.00D-01
     ILin= 3 X=1.500D+00 Y=-2.033280131673D-02 DE=-1.99D-02 F= -3.86D-04
     Reject lnstep minimum 1.738D+00 FVal=-2.037559629576D-02 Lims=  8.00D-01  1.50D+00
     ILin= 4 X=2.600D+00 Y=-1.023709593926D-02 DE=-9.76D-03 F=  1.88D-02
     An  expanding polynomial of degree  4 produced  1.5228
     Minimum is close to point  3 DX=  2.28D-02 DF= -4.49D-06 DXR=  1.50D-02 DFR=  2.26D-04 which will be used.
 Iteration   4 EE=-0.203328013167265E-01 Delta-E=       -0.019858096494 Grad=4.055D-02 Max rot=    0.5909 deg.
 Gradient too large for Newton-Raphson -- use scaled steepest descent instead.
 Alpha Gap=     0.360 HL deriv= 3.84D-03
  Beta Gap=     0.344 HL deriv= 6.61D-03
     ILin= 1 X=0.000D+00 Y=-2.033280131673D-02 DE= 0.00D+00 F= -5.40D-03
     ILin= 2 X=1.500D+00 Y=-2.459224787629D-02 DE=-4.26D-03 F= -2.49D-04
     Reject lnstep minimum 1.521D+00 FVal=-2.459399595732D-02 Lims=  0.00D+00  1.50D+00
     ILin= 3 X=2.800D+00 Y=-2.194504968179D-02 DE=-1.61D-03 F=  4.34D-03
     An  expanding polynomial of degree  3 produced  1.5653
     Minimum is close to point  2 DX=  6.53D-02 DF= -7.43D-06 DXR=  4.17D-02 DFR=  1.74D-03 which will be used.
 Iteration   5 EE=-0.245922478762850E-01 Delta-E=       -0.004259446560 Grad=2.303D-02 Max rot=    0.4872 deg.
 Gradient too large for Newton-Raphson -- use scaled steepest descent instead.
 Alpha Gap=     0.362 HL deriv= 9.58D-03
  Beta Gap=     0.348 HL deriv= 1.91D-02
     ILin= 1 X=0.000D+00 Y=-2.459224787629D-02 DE= 0.00D+00 F= -1.94D-03
     ILin= 2 X=1.500D+00 Y=-2.632176113104D-02 DE=-1.73D-03 F= -3.68D-04
     ILin= 3 X=3.100D+00 Y=-2.557550339827D-02 DE=-9.83D-04 F=  1.30D-03
     An  expanding polynomial of degree  3 produced  1.8536
 Iteration   6 EE=-0.263867017577581E-01 Delta-E=       -0.001794453881 Grad=1.924D-02 Max rot=    0.3421 deg.
 Gradient too large for Newton-Raphson -- use scaled steepest descent instead.
 Alpha Gap=     0.359 HL deriv= 3.52D-04
  Beta Gap=     0.350 HL deriv= 4.96D-03
     ILin= 1 X=0.000D+00 Y=-2.638670175776D-02 DE= 0.00D+00 F= -1.22D-03
     ILin= 2 X=1.700D+00 Y=-2.723520372894D-02 DE=-8.49D-04 F=  2.28D-04
     Accept linear search using points  1 and  2.
     An  expanding polynomial of degree  2 produced  1.6025
     Minimum is close to point  2 DX= -9.75D-02 DF= -6.42D-06 DXR=  6.08D-02 DFR=  7.57D-03 which will be used.
 Iteration   7 EE=-0.272352037289352E-01 Delta-E=       -0.000848501971 Grad=1.514D-02 Max rot=    0.2574 deg.
 Gradient too large for Newton-Raphson -- use scaled steepest descent instead.
 Alpha Gap=     0.359 HL deriv= 5.66D-03
  Beta Gap=     0.352 HL deriv= 1.08D-02
     ILin= 1 X=0.000D+00 Y=-2.723520372894D-02 DE= 0.00D+00 F= -7.52D-04
     ILin= 2 X=1.700D+00 Y=-2.768548748736D-02 DE=-4.50D-04 F=  2.23D-04
     Accept linear search using points  1 and  2.
     An  expanding polynomial of degree  2 produced  1.5236
 Iteration   8 EE=-0.277158173115026E-01 Delta-E=       -0.000480613583 Grad=1.057D-02 Max rot=    0.1979 deg.
 Gradient too large for Newton-Raphson -- use scaled steepest descent instead.
 Alpha Gap=     0.358 HL deriv= 9.21D-04
  Beta Gap=     0.353 HL deriv= 3.17D-03
     ILin= 1 X=0.000D+00 Y=-2.771581731150D-02 DE= 0.00D+00 F= -3.71D-04
     ILin= 2 X=1.600D+00 Y=-2.796511720771D-02 DE=-2.49D-04 F=  5.96D-05
     Accept linear search using points  1 and  2.
     An  expanding polynomial of degree  2 produced  1.5122
     Minimum is close to point  2 DX= -8.78D-02 DF= -1.61D-06 DXR=  5.81D-02 DFR=  6.45D-03 which will be used.
 Iteration   9 EE=-0.279651172077138E-01 Delta-E=       -0.000249299896 Grad=8.251D-03 Max rot=    0.1399 deg.
 QCNR:  CnvC1=3.65D-09 CnvC2=3.65D-08
 LinEq1:  Iter=  0 NonCon=     1 RMS=3.90D-04 Max=8.85D-03 NDo=     1
 AX will form     1 AO Fock derivatives at one time.
 LinEq1:  Iter=  1 NonCon=     1 RMS=1.27D-04 Max=1.62D-03 NDo=     1
 LinEq1:  Iter=  2 NonCon=     1 RMS=1.37D-05 Max=2.37D-04 NDo=     1
 LinEq1:  Iter=  3 NonCon=     1 RMS=3.71D-06 Max=4.27D-05 NDo=     1
 LinEq1:  Iter=  4 NonCon=     1 RMS=6.41D-07 Max=8.29D-06 NDo=     1
 LinEq1:  Iter=  5 NonCon=     1 RMS=1.80D-07 Max=2.69D-06 NDo=     1
 LinEq1:  Iter=  6 NonCon=     1 RMS=4.19D-08 Max=7.40D-07 NDo=     1
 LinEq1:  Iter=  7 NonCon=     1 RMS=9.89D-09 Max=1.25D-07 NDo=     1
 LinEq1:  Iter=  8 NonCon=     0 RMS=2.36D-09 Max=3.42D-08 NDo=     1
 Linear equations converged to 3.652D-09 3.652D-08 after     8 iterations.
 Angle between quadratic step and gradient=  54.09 degrees.
     ILin= 1 X=0.000D+00 Y=-2.796511720771D-02 DE= 0.00D+00 F= -6.92D-04
     ILin= 2 X=1.000D+00 Y=-2.830643134064D-02 DE=-3.41D-04 F=  1.54D-05
     Accept linear search using points  1 and  2.
     An  expanding polynomial of degree  2 produced  0.9788
     Minimum is close to point  2 DX= -2.12D-02 DF= -1.63D-07 DXR=  2.17D-02 DFR=  4.78D-04 which will be used.
 Iteration  10 EE=-0.283064313406385E-01 Delta-E=       -0.000341314133 Grad=4.120D-04 Max rot=    0.0066 deg.
 QCNR:  CnvC1=3.65D-09 CnvC2=3.65D-08
 LinEq1:  Iter=  0 NonCon=     1 RMS=2.08D-05 Max=3.41D-04 NDo=     1
 LinEq1:  Iter=  1 NonCon=     1 RMS=7.33D-06 Max=1.70D-04 NDo=     1
 LinEq1:  Iter=  2 NonCon=     1 RMS=1.33D-06 Max=3.27D-05 NDo=     1
 LinEq1:  Iter=  3 NonCon=     1 RMS=3.77D-07 Max=5.92D-06 NDo=     1
 LinEq1:  Iter=  4 NonCon=     1 RMS=9.28D-08 Max=9.19D-07 NDo=     1
 LinEq1:  Iter=  5 NonCon=     1 RMS=2.02D-08 Max=3.39D-07 NDo=     1
 LinEq1:  Iter=  6 NonCon=     1 RMS=4.85D-09 Max=9.70D-08 NDo=     1
 LinEq1:  Iter=  7 NonCon=     0 RMS=9.95D-10 Max=1.12D-08 NDo=     1
 Linear equations converged to 3.652D-09 3.652D-08 after     7 iterations.
 Angle between quadratic step and gradient=  52.25 degrees.
     ILin= 1 X=0.000D+00 Y=-2.830643134064D-02 DE= 0.00D+00 F= -1.67D-06
     ILin= 2 X=1.000D+00 Y=-2.830726556903D-02 DE=-8.34D-07 F= -1.68D-09
     Reject lnstep minimum 1.001D+00 FVal=-2.830726556987D-02 Lims=  0.00D+00  1.00D+00
     ILin= 3 X=2.000D+00 Y=-2.830643683762D-02 DE=-5.50D-09 F=  1.66D-06
     An  expanding polynomial of degree  3 produced  1.0017
     Minimum is close to point  2 DX=  1.65D-03 DF= -2.27D-12 DXR=  1.65D-03 DFR=  2.72D-06 which will be used.
 Iteration  11 EE=-0.283072655690262E-01 Delta-E=       -0.000000834228 Grad=1.567D-05 Max rot=    0.0003 deg.
 QCNR:  CnvC1=1.57D-10 CnvC2=1.57D-09
 LinEq1:  Iter=  0 NonCon=     1 RMS=5.69D-07 Max=5.86D-06 NDo=     1
 LinEq1:  Iter=  1 NonCon=     1 RMS=1.52D-07 Max=2.74D-06 NDo=     1
 LinEq1:  Iter=  2 NonCon=     1 RMS=3.75D-08 Max=5.51D-07 NDo=     1
 LinEq1:  Iter=  3 NonCon=     1 RMS=1.00D-08 Max=1.49D-07 NDo=     1
 LinEq1:  Iter=  4 NonCon=     1 RMS=2.40D-09 Max=2.93D-08 NDo=     1
 LinEq1:  Iter=  5 NonCon=     1 RMS=6.02D-10 Max=1.12D-08 NDo=     1
 LinEq1:  Iter=  6 NonCon=     1 RMS=1.29D-10 Max=2.49D-09 NDo=     1
 LinEq1:  Iter=  7 NonCon=     0 RMS=3.68D-11 Max=4.61D-10 NDo=     1
 Linear equations converged to 1.567D-10 1.567D-09 after     7 iterations.
 Angle between quadratic step and gradient=  60.82 degrees.
     ILin= 1 X=0.000D+00 Y=-2.830726556903D-02 DE= 0.00D+00 F= -1.19D-09
     ILin= 2 X=1.000D+00 Y=-2.830726616253D-02 DE=-5.94D-10
 Iteration  12 EE=-0.283072661625283E-01 Delta-E=       -0.000000000594 Grad=4.860D-07 Max rot=    0.0000 deg.
 QCNR:  CnvC1=4.86D-12 CnvC2=4.86D-11
 LinEq1:  Iter=  0 NonCon=     1 RMS=2.19D-08 Max=2.75D-07 NDo=     1
 LinEq1:  Iter=  1 NonCon=     1 RMS=8.24D-09 Max=1.65D-07 NDo=     1
 LinEq1:  Iter=  2 NonCon=     1 RMS=1.73D-09 Max=2.51D-08 NDo=     1
 LinEq1:  Iter=  3 NonCon=     1 RMS=4.28D-10 Max=5.33D-09 NDo=     1
 LinEq1:  Iter=  4 NonCon=     1 RMS=1.01D-10 Max=1.29D-09 NDo=     1
 LinEq1:  Iter=  5 NonCon=     1 RMS=2.62D-11 Max=3.44D-10 NDo=     1
 LinEq1:  Iter=  6 NonCon=     1 RMS=6.16D-12 Max=9.70D-11 NDo=     1
 LinEq1:  Iter=  7 NonCon=     0 RMS=1.53D-12 Max=1.52D-11 NDo=     1
 Linear equations converged to 4.860D-12 4.860D-11 after     7 iterations.
 Angle between quadratic step and gradient=  55.37 degrees.
     ILin= 1 X=0.000D+00 Y=-2.830726616253D-02 DE= 0.00D+00 F= -1.63D-12
     ILin= 2 X=1.000D+00 Y=-2.830726616344D-02 DE=-9.09D-13
 Iteration  13 EE=-0.283072661634378E-01 Delta-E=       -0.000000000001 Grad=3.075D-08 Max rot=    0.0000 deg.
 Rotation gradient small -- convergence achieved.
 SCF Done:  E(UPM6) = -0.283072661634E-01 a.u. after   13 cycles
            Convg  =    0.3075D-07                    57 Fock formations.
              S**2 =  0.0000                  -V/T =  0.9992
 <Sx>= 0.0000 <Sy>= 0.0000 <Sz>= 0.0000 <S**2>= 0.0000 S= 0.0000
 <L.S>= 0.000000000000E+00
 Annihilation of the first spin contaminant:
 S**2 before annihilation     0.0000,   after     0.0000
 Leave Link  508 at Tue Feb 16 04:42:26 2021, MaxMem=    33554432 cpu:         0.1
 (Enter /cm/shared/apps/Gaussian09/g09/l801.exe)
 Range of M.O.s used for correlation:     1    52
 NBasis=    52 NAE=    29 NBE=    29 NFC=     0 NFV=     0
 NROrb=     52 NOA=    29 NOB=    29 NVA=    23 NVB=    23
 Leave Link  801 at Tue Feb 16 04:42:26 2021, MaxMem=    33554432 cpu:         0.0
 (Enter /cm/shared/apps/Gaussian09/g09/l1101.exe)
 Using compressed storage, NAtomX=    22.
 Will process     23 centers per pass.
 Leave Link 1101 at Tue Feb 16 04:42:26 2021, MaxMem=    33554432 cpu:         0.0
 (Enter /cm/shared/apps/Gaussian09/g09/l1102.exe)
 Symmetrizing basis deriv contribution to polar:
 IMax=3 JMax=2 DiffMx= 0.00D+00
 Leave Link 1102 at Tue Feb 16 04:42:26 2021, MaxMem=    33554432 cpu:         0.0
 (Enter /cm/shared/apps/Gaussian09/g09/l1110.exe)
 Forming Gx(P) for the SCF density, NAtomX=    22.
 Integral derivatives from FoFJK, PRISM(SPDF).
 Do as many integral derivatives as possible in FoFJK.
 G2DrvN: MDV=      33495261.
 G2DrvN: will do    23 centers at a time, making    1 passes.
 Calling FoFCou, ICntrl=  3107 FMM=F I1Cent=   0 AccDes= 0.00D+00.
 FoFJK:  IHMeth=40 ICntrl=    3107 DoSepK=F KAlg= 0 I1Cent=   0 FoldK=F
 IRaf=         0 NMat=   1 IRICut=       1 DoRegI=T DoRafI=F ISym2E= 0.
 FoFCou: FMM=F IPFlag=           0 FMFlag=      100000 FMFlg1=           0
         NFxFlg=           0 DoJE=F BraDBF=F KetDBF=F FulRan=T
         wScrn=  0.000000 ICntrl=    3107 IOpCl=  1 I1Cent=           0 NGrid=           0
         NMat0=    1 NMatS0=      1 NMatT0=    0 NMatD0=    1 NMtDS0=    0 NMtDT0=    0
 Symmetry not used in FoFCou.
 End of G2Drv F.D. properties file   721 does not exist.
 End of G2Drv F.D. properties file   722 does not exist.
 End of G2Drv F.D. properties file   788 does not exist.
 Leave Link 1110 at Tue Feb 16 04:42:26 2021, MaxMem=    33554432 cpu:         0.0
 (Enter /cm/shared/apps/Gaussian09/g09/l1002.exe)
 Minotr:  UHF open shell wavefunction.
          IDoAtm=1111111111111111111111
          Direct CPHF calculation.
          Differentiating once with respect to electric field.
                with respect to dipole field.
          Differentiating once with respect to nuclear coordinates.
          Electric field/nuclear overlap derivatives assumed to be zero.
          Requested convergence is 1.0D-08 RMS, and 1.0D-07 maximum.
          NewPWx=T KeepS1=F KeepF1=F KeepIn=T MapXYZ=F SortEE=F KeepMc=T.
          MDV=      33495213 using IRadAn=       2.
 Keep J ints in memory in canonical form, NReq=888555.
 FoFCou: FMM=F IPFlag=           0 FMFlag=           0 FMFlg1=           0
         NFxFlg=           0 DoJE=F BraDBF=F KetDBF=F FulRan=T
         wScrn=  0.000000 ICntrl=     600 IOpCl=  2 I1Cent=           0 NGrid=           0
         NMat0=    1 NMatS0=    112 NMatT0=    0 NMatD0=    1 NMtDS0=    0 NMtDT0=    0
 Symmetry not used in FoFCou.
          Solving linear equations separately, MaxMat=       0.
          There are    69 degrees of freedom in the 1st order CPHF.  IDoFFX=5 NUNeed=    69.
 LinEq1:  Iter=  0 NonCon=    69 RMS=2.14D-01 Max=2.97D+00 NDo=    69
 AX will form    69 AO Fock derivatives at one time.
 LinEq1:  Iter=  1 NonCon=    69 RMS=3.56D-02 Max=3.05D-01 NDo=    69
 LinEq1:  Iter=  2 NonCon=    69 RMS=8.09D-03 Max=9.19D-02 NDo=    69
 LinEq1:  Iter=  3 NonCon=    69 RMS=1.11D-03 Max=1.50D-02 NDo=    69
 LinEq1:  Iter=  4 NonCon=    69 RMS=1.91D-04 Max=2.22D-03 NDo=    69
 LinEq1:  Iter=  5 NonCon=    69 RMS=3.66D-05 Max=2.24D-04 NDo=    69
 LinEq1:  Iter=  6 NonCon=    69 RMS=6.01D-06 Max=6.15D-05 NDo=    69
 LinEq1:  Iter=  7 NonCon=    41 RMS=9.49D-07 Max=7.11D-06 NDo=    69
 LinEq1:  Iter=  8 NonCon=    13 RMS=1.58D-07 Max=1.34D-06 NDo=    69
 LinEq1:  Iter=  9 NonCon=     3 RMS=2.60D-08 Max=1.60D-07 NDo=    69
 LinEq1:  Iter= 10 NonCon=     0 RMS=4.28D-09 Max=2.15D-08 NDo=    69
 Linear equations converged to 1.000D-08 1.000D-07 after    10 iterations.
 FullF1:  Do perturbations    1 to     3.
 Isotropic polarizability for W=    0.000000       67.73 Bohr**3.
 End of Minotr F.D. properties file   721 does not exist.
 End of Minotr F.D. properties file   722 does not exist.
 End of Minotr F.D. properties file   788 does not exist.
 Leave Link 1002 at Tue Feb 16 04:42:27 2021, MaxMem=    33554432 cpu:         0.4
 (Enter /cm/shared/apps/Gaussian09/g09/l601.exe)
 Copying SCF densities to generalized density rwf, IOpCl= 1 IROHF=0.

 **********************************************************************

            Population analysis using the SCF density.

 **********************************************************************

 Alpha  occ. eigenvalues --   -1.19155  -1.17716  -1.07012  -1.02698  -0.99559
 Alpha  occ. eigenvalues --   -0.93987  -0.89481  -0.81639  -0.74529  -0.72526
 Alpha  occ. eigenvalues --   -0.66677  -0.63459  -0.61603  -0.60804  -0.58902
 Alpha  occ. eigenvalues --   -0.55584  -0.55212  -0.54043  -0.53020  -0.52581
 Alpha  occ. eigenvalues --   -0.50333  -0.49270  -0.46803  -0.46104  -0.43288
 Alpha  occ. eigenvalues --   -0.43001  -0.37860  -0.35169  -0.33495
 Alpha virt. eigenvalues --   -0.01492   0.00794   0.02568   0.10789   0.11061
 Alpha virt. eigenvalues --    0.11877   0.12973   0.13905   0.14810   0.15745
 Alpha virt. eigenvalues --    0.16202   0.16641   0.16979   0.17112   0.17905
 Alpha virt. eigenvalues --    0.18185   0.19637   0.20364   0.20804   0.21502
 Alpha virt. eigenvalues --    0.22065   0.22385   0.23177
  Beta  occ. eigenvalues --   -1.19155  -1.17716  -1.07012  -1.02698  -0.99559
  Beta  occ. eigenvalues --   -0.93987  -0.89481  -0.81639  -0.74529  -0.72526
  Beta  occ. eigenvalues --   -0.66677  -0.63459  -0.61603  -0.60804  -0.58902
  Beta  occ. eigenvalues --   -0.55584  -0.55212  -0.54043  -0.53020  -0.52581
  Beta  occ. eigenvalues --   -0.50333  -0.49270  -0.46803  -0.46104  -0.43288
  Beta  occ. eigenvalues --   -0.43001  -0.37860  -0.35169  -0.33495
  Beta virt. eigenvalues --   -0.01492   0.00794   0.02568   0.10789   0.11061
  Beta virt. eigenvalues --    0.11877   0.12973   0.13905   0.14810   0.15745
  Beta virt. eigenvalues --    0.16202   0.16641   0.16979   0.17112   0.17905
  Beta virt. eigenvalues --    0.18185   0.19637   0.20364   0.20804   0.21502
  Beta virt. eigenvalues --    0.22065   0.22385   0.23177
          Condensed to atoms (all electrons):
               1          2          3          4          5          6
     1  C    4.233852   0.000000   0.000000   0.000000   0.000000   0.000000
     2  C    0.000000   4.176383   0.000000   0.000000   0.000000   0.000000
     3  C    0.000000   0.000000   4.589744   0.000000   0.000000   0.000000
     4  C    0.000000   0.000000   0.000000   3.628239   0.000000   0.000000
     5  C    0.000000   0.000000   0.000000   0.000000   3.591504   0.000000
     6  C    0.000000   0.000000   0.000000   0.000000   0.000000   4.445677
     7  H    0.000000   0.000000   0.000000   0.000000   0.000000   0.000000
     8  H    0.000000   0.000000   0.000000   0.000000   0.000000   0.000000
     9  H    0.000000   0.000000   0.000000   0.000000   0.000000   0.000000
    10  H    0.000000   0.000000   0.000000   0.000000   0.000000   0.000000
    11  H    0.000000   0.000000   0.000000   0.000000   0.000000   0.000000
    12  H    0.000000   0.000000   0.000000   0.000000   0.000000   0.000000
    13  C    0.000000   0.000000   0.000000   0.000000   0.000000   0.000000
    14  H    0.000000   0.000000   0.000000   0.000000   0.000000   0.000000
    15  H    0.000000   0.000000   0.000000   0.000000   0.000000   0.000000
    16  H    0.000000   0.000000   0.000000   0.000000   0.000000   0.000000
    17  H    0.000000   0.000000   0.000000   0.000000   0.000000   0.000000
    18  H    0.000000   0.000000   0.000000   0.000000   0.000000   0.000000
    19  H    0.000000   0.000000   0.000000   0.000000   0.000000   0.000000
    20  O    0.000000   0.000000   0.000000   0.000000   0.000000   0.000000
    21  O    0.000000   0.000000   0.000000   0.000000   0.000000   0.000000
    22  O    0.000000   0.000000   0.000000   0.000000   0.000000   0.000000
               7          8          9         10         11         12
     1  C    0.000000   0.000000   0.000000   0.000000   0.000000   0.000000
     2  C    0.000000   0.000000   0.000000   0.000000   0.000000   0.000000
     3  C    0.000000   0.000000   0.000000   0.000000   0.000000   0.000000
     4  C    0.000000   0.000000   0.000000   0.000000   0.000000   0.000000
     5  C    0.000000   0.000000   0.000000   0.000000   0.000000   0.000000
     6  C    0.000000   0.000000   0.000000   0.000000   0.000000   0.000000
     7  H    0.852977   0.000000   0.000000   0.000000   0.000000   0.000000
     8  H    0.000000   0.856686   0.000000   0.000000   0.000000   0.000000
     9  H    0.000000   0.000000   0.877210   0.000000   0.000000   0.000000
    10  H    0.000000   0.000000   0.000000   0.869184   0.000000   0.000000
    11  H    0.000000   0.000000   0.000000   0.000000   0.787839   0.000000
    12  H    0.000000   0.000000   0.000000   0.000000   0.000000   0.651007
    13  C    0.000000   0.000000   0.000000   0.000000   0.000000   0.000000
    14  H    0.000000   0.000000   0.000000   0.000000   0.000000   0.000000
    15  H    0.000000   0.000000   0.000000   0.000000   0.000000   0.000000
    16  H    0.000000   0.000000   0.000000   0.000000   0.000000   0.000000
    17  H    0.000000   0.000000   0.000000   0.000000   0.000000   0.000000
    18  H    0.000000   0.000000   0.000000   0.000000   0.000000   0.000000
    19  H    0.000000   0.000000   0.000000   0.000000   0.000000   0.000000
    20  O    0.000000   0.000000   0.000000   0.000000   0.000000   0.000000
    21  O    0.000000   0.000000   0.000000   0.000000   0.000000   0.000000
    22  O    0.000000   0.000000   0.000000   0.000000   0.000000   0.000000
              13         14         15         16         17         18
     1  C    0.000000   0.000000   0.000000   0.000000   0.000000   0.000000
     2  C    0.000000   0.000000   0.000000   0.000000   0.000000   0.000000
     3  C    0.000000   0.000000   0.000000   0.000000   0.000000   0.000000
     4  C    0.000000   0.000000   0.000000   0.000000   0.000000   0.000000
     5  C    0.000000   0.000000   0.000000   0.000000   0.000000   0.000000
     6  C    0.000000   0.000000   0.000000   0.000000   0.000000   0.000000
     7  H    0.000000   0.000000   0.000000   0.000000   0.000000   0.000000
     8  H    0.000000   0.000000   0.000000   0.000000   0.000000   0.000000
     9  H    0.000000   0.000000   0.000000   0.000000   0.000000   0.000000
    10  H    0.000000   0.000000   0.000000   0.000000   0.000000   0.000000
    11  H    0.000000   0.000000   0.000000   0.000000   0.000000   0.000000
    12  H    0.000000   0.000000   0.000000   0.000000   0.000000   0.000000
    13  C    4.558080   0.000000   0.000000   0.000000   0.000000   0.000000
    14  H    0.000000   0.909490   0.000000   0.000000   0.000000   0.000000
    15  H    0.000000   0.000000   0.832681   0.000000   0.000000   0.000000
    16  H    0.000000   0.000000   0.000000   0.824015   0.000000   0.000000
    17  H    0.000000   0.000000   0.000000   0.000000   0.787891   0.000000
    18  H    0.000000   0.000000   0.000000   0.000000   0.000000   0.805255
    19  H    0.000000   0.000000   0.000000   0.000000   0.000000   0.000000
    20  O    0.000000   0.000000   0.000000   0.000000   0.000000   0.000000
    21  O    0.000000   0.000000   0.000000   0.000000   0.000000   0.000000
    22  O    0.000000   0.000000   0.000000   0.000000   0.000000   0.000000
              19         20         21         22
     1  C    0.000000   0.000000   0.000000   0.000000
     2  C    0.000000   0.000000   0.000000   0.000000
     3  C    0.000000   0.000000   0.000000   0.000000
     4  C    0.000000   0.000000   0.000000   0.000000
     5  C    0.000000   0.000000   0.000000   0.000000
     6  C    0.000000   0.000000   0.000000   0.000000
     7  H    0.000000   0.000000   0.000000   0.000000
     8  H    0.000000   0.000000   0.000000   0.000000
     9  H    0.000000   0.000000   0.000000   0.000000
    10  H    0.000000   0.000000   0.000000   0.000000
    11  H    0.000000   0.000000   0.000000   0.000000
    12  H    0.000000   0.000000   0.000000   0.000000
    13  C    0.000000   0.000000   0.000000   0.000000
    14  H    0.000000   0.000000   0.000000   0.000000
    15  H    0.000000   0.000000   0.000000   0.000000
    16  H    0.000000   0.000000   0.000000   0.000000
    17  H    0.000000   0.000000   0.000000   0.000000
    18  H    0.000000   0.000000   0.000000   0.000000
    19  H    0.800301   0.000000   0.000000   0.000000
    20  O    0.000000   6.463441   0.000000   0.000000
    21  O    0.000000   0.000000   6.519499   0.000000
    22  O    0.000000   0.000000   0.000000   5.939044
          Atomic-Atomic Spin Densities.
               1          2          3          4          5          6
     1  C    0.000000   0.000000   0.000000   0.000000   0.000000   0.000000
     2  C    0.000000   0.000000   0.000000   0.000000   0.000000   0.000000
     3  C    0.000000   0.000000   0.000000   0.000000   0.000000   0.000000
     4  C    0.000000   0.000000   0.000000   0.000000   0.000000   0.000000
     5  C    0.000000   0.000000   0.000000   0.000000   0.000000   0.000000
     6  C    0.000000   0.000000   0.000000   0.000000   0.000000   0.000000
     7  H    0.000000   0.000000   0.000000   0.000000   0.000000   0.000000
     8  H    0.000000   0.000000   0.000000   0.000000   0.000000   0.000000
     9  H    0.000000   0.000000   0.000000   0.000000   0.000000   0.000000
    10  H    0.000000   0.000000   0.000000   0.000000   0.000000   0.000000
    11  H    0.000000   0.000000   0.000000   0.000000   0.000000   0.000000
    12  H    0.000000   0.000000   0.000000   0.000000   0.000000   0.000000
    13  C    0.000000   0.000000   0.000000   0.000000   0.000000   0.000000
    14  H    0.000000   0.000000   0.000000   0.000000   0.000000   0.000000
    15  H    0.000000   0.000000   0.000000   0.000000   0.000000   0.000000
    16  H    0.000000   0.000000   0.000000   0.000000   0.000000   0.000000
    17  H    0.000000   0.000000   0.000000   0.000000   0.000000   0.000000
    18  H    0.000000   0.000000   0.000000   0.000000   0.000000   0.000000
    19  H    0.000000   0.000000   0.000000   0.000000   0.000000   0.000000
    20  O    0.000000   0.000000   0.000000   0.000000   0.000000   0.000000
    21  O    0.000000   0.000000   0.000000   0.000000   0.000000   0.000000
    22  O    0.000000   0.000000   0.000000   0.000000   0.000000   0.000000
               7          8          9         10         11         12
     1  C    0.000000   0.000000   0.000000   0.000000   0.000000   0.000000
     2  C    0.000000   0.000000   0.000000   0.000000   0.000000   0.000000
     3  C    0.000000   0.000000   0.000000   0.000000   0.000000   0.000000
     4  C    0.000000   0.000000   0.000000   0.000000   0.000000   0.000000
     5  C    0.000000   0.000000   0.000000   0.000000   0.000000   0.000000
     6  C    0.000000   0.000000   0.000000   0.000000   0.000000   0.000000
     7  H    0.000000   0.000000   0.000000   0.000000   0.000000   0.000000
     8  H    0.000000   0.000000   0.000000   0.000000   0.000000   0.000000
     9  H    0.000000   0.000000   0.000000   0.000000   0.000000   0.000000
    10  H    0.000000   0.000000   0.000000   0.000000   0.000000   0.000000
    11  H    0.000000   0.000000   0.000000   0.000000   0.000000   0.000000
    12  H    0.000000   0.000000   0.000000   0.000000   0.000000   0.000000
    13  C    0.000000   0.000000   0.000000   0.000000   0.000000   0.000000
    14  H    0.000000   0.000000   0.000000   0.000000   0.000000   0.000000
    15  H    0.000000   0.000000   0.000000   0.000000   0.000000   0.000000
    16  H    0.000000   0.000000   0.000000   0.000000   0.000000   0.000000
    17  H    0.000000   0.000000   0.000000   0.000000   0.000000   0.000000
    18  H    0.000000   0.000000   0.000000   0.000000   0.000000   0.000000
    19  H    0.000000   0.000000   0.000000   0.000000   0.000000   0.000000
    20  O    0.000000   0.000000   0.000000   0.000000   0.000000   0.000000
    21  O    0.000000   0.000000   0.000000   0.000000   0.000000   0.000000
    22  O    0.000000   0.000000   0.000000   0.000000   0.000000   0.000000
              13         14         15         16         17         18
     1  C    0.000000   0.000000   0.000000   0.000000   0.000000   0.000000
     2  C    0.000000   0.000000   0.000000   0.000000   0.000000   0.000000
     3  C    0.000000   0.000000   0.000000   0.000000   0.000000   0.000000
     4  C    0.000000   0.000000   0.000000   0.000000   0.000000   0.000000
     5  C    0.000000   0.000000   0.000000   0.000000   0.000000   0.000000
     6  C    0.000000   0.000000   0.000000   0.000000   0.000000   0.000000
     7  H    0.000000   0.000000   0.000000   0.000000   0.000000   0.000000
     8  H    0.000000   0.000000   0.000000   0.000000   0.000000   0.000000
     9  H    0.000000   0.000000   0.000000   0.000000   0.000000   0.000000
    10  H    0.000000   0.000000   0.000000   0.000000   0.000000   0.000000
    11  H    0.000000   0.000000   0.000000   0.000000   0.000000   0.000000
    12  H    0.000000   0.000000   0.000000   0.000000   0.000000   0.000000
    13  C    0.000000   0.000000   0.000000   0.000000   0.000000   0.000000
    14  H    0.000000   0.000000   0.000000   0.000000   0.000000   0.000000
    15  H    0.000000   0.000000   0.000000   0.000000   0.000000   0.000000
    16  H    0.000000   0.000000   0.000000   0.000000   0.000000   0.000000
    17  H    0.000000   0.000000   0.000000   0.000000   0.000000   0.000000
    18  H    0.000000   0.000000   0.000000   0.000000   0.000000   0.000000
    19  H    0.000000   0.000000   0.000000   0.000000   0.000000   0.000000
    20  O    0.000000   0.000000   0.000000   0.000000   0.000000   0.000000
    21  O    0.000000   0.000000   0.000000   0.000000   0.000000   0.000000
    22  O    0.000000   0.000000   0.000000   0.000000   0.000000   0.000000
              19         20         21         22
     1  C    0.000000   0.000000   0.000000   0.000000
     2  C    0.000000   0.000000   0.000000   0.000000
     3  C    0.000000   0.000000   0.000000   0.000000
     4  C    0.000000   0.000000   0.000000   0.000000
     5  C    0.000000   0.000000   0.000000   0.000000
     6  C    0.000000   0.000000   0.000000   0.000000
     7  H    0.000000   0.000000   0.000000   0.000000
     8  H    0.000000   0.000000   0.000000   0.000000
     9  H    0.000000   0.000000   0.000000   0.000000
    10  H    0.000000   0.000000   0.000000   0.000000
    11  H    0.000000   0.000000   0.000000   0.000000
    12  H    0.000000   0.000000   0.000000   0.000000
    13  C    0.000000   0.000000   0.000000   0.000000
    14  H    0.000000   0.000000   0.000000   0.000000
    15  H    0.000000   0.000000   0.000000   0.000000
    16  H    0.000000   0.000000   0.000000   0.000000
    17  H    0.000000   0.000000   0.000000   0.000000
    18  H    0.000000   0.000000   0.000000   0.000000
    19  H    0.000000   0.000000   0.000000   0.000000
    20  O    0.000000   0.000000   0.000000   0.000000
    21  O    0.000000   0.000000   0.000000   0.000000
    22  O    0.000000   0.000000   0.000000   0.000000
 Mulliken charges and spin densities:
               1          2
     1  C   -0.233852   0.000000
     2  C   -0.176383   0.000000
     3  C   -0.589744   0.000000
     4  C    0.371761   0.000000
     5  C    0.408496   0.000000
     6  C   -0.445677   0.000000
     7  H    0.147023   0.000000
     8  H    0.143314   0.000000
     9  H    0.122790   0.000000
    10  H    0.130816   0.000000
    11  H    0.212161   0.000000
    12  H    0.348993   0.000000
    13  C   -0.558080   0.000000
    14  H    0.090510   0.000000
    15  H    0.167319   0.000000
    16  H    0.175985   0.000000
    17  H    0.212109   0.000000
    18  H    0.194745   0.000000
    19  H    0.199699   0.000000
    20  O   -0.463441   0.000000
    21  O   -0.519499   0.000000
    22  O    0.060956   0.000000
 Sum of Mulliken charges =   0.00000   0.00000
 Mulliken charges and spin densities with hydrogens summed into heavy atoms:
               1          2
     1  C    0.056486   0.000000
     2  C    0.077223   0.000000
     3  C   -0.028590   0.000000
     4  C    0.371761   0.000000
     5  C    0.499006   0.000000
     6  C   -0.102373   0.000000
    13  C    0.048473   0.000000
    20  O   -0.463441   0.000000
    21  O   -0.519499   0.000000
    22  O    0.060956   0.000000
 APT charges:
               1
     1  C   -0.174379
     2  C   -0.079889
     3  C   -0.921879
     4  C    0.848678
     5  C    0.869542
     6  C   -0.677504
     7  H    0.129256
     8  H    0.125005
     9  H    0.102327
    10  H    0.121570
    11  H    0.241438
    12  H    0.508235
    13  C   -0.852112
    14  H    0.013376
    15  H    0.181431
    16  H    0.193195
    17  H    0.260693
    18  H    0.242471
    19  H    0.250079
    20  O   -0.680992
    21  O   -0.688336
    22  O   -0.012202
 Sum of APT charges =   0.00000
 APT charges with hydrogens summed into heavy atoms:
               1
     1  C    0.079882
     2  C    0.144009
     3  C   -0.172207
     4  C    0.848678
     5  C    0.882918
     6  C   -0.302878
    13  C   -0.098868
    20  O   -0.680992
    21  O   -0.688336
    22  O   -0.012202
 Charge=              0.0000 electrons
 Dipole moment (field-independent basis, Debye):
    X=              1.7827    Y=              4.5427    Z=              1.5279  Tot=              5.1135
 N-N= 3.316949985183D+02 E-N=-5.904673613997D+02  KE=-3.446904559640D+01
  Exact polarizability:  63.957  -5.137  76.700  13.715  10.549  62.534
 Approx polarizability:  47.820  -3.142  60.035  14.861   5.129  42.132
 Leave Link  601 at Tue Feb 16 04:42:27 2021, MaxMem=    33554432 cpu:         0.0
 (Enter /cm/shared/apps/Gaussian09/g09/l701.exe)
 Compute integral second derivatives.
 ... and contract with generalized density number  0.
 Leave Link  701 at Tue Feb 16 04:42:27 2021, MaxMem=    33554432 cpu:         0.1
 (Enter /cm/shared/apps/Gaussian09/g09/l702.exe)
 L702 exits ... SP integral derivatives will be done elsewhere.
 Leave Link  702 at Tue Feb 16 04:42:27 2021, MaxMem=    33554432 cpu:         0.0
 (Enter /cm/shared/apps/Gaussian09/g09/l703.exe)
 Compute integral second derivatives, UseDBF=F ICtDFT=           0.
 Integral derivatives from FoFJK, PRISM(SPDF).
 Calling FoFJK, ICntrl=    100127 FMM=F ISym2X=0 I1Cent= 0 IOpClX= 1 NMat=1 NMatS=1 NMatT=0.
 FoFJK:  IHMeth=40 ICntrl=  100127 DoSepK=F KAlg= 0 I1Cent=   0 FoldK=F
 IRaf=         0 NMat=   1 IRICut=       1 DoRegI=T DoRafI=F ISym2E= 0.
 FoFCou: FMM=F IPFlag=           0 FMFlag=      100000 FMFlg1=         800
         NFxFlg=           0 DoJE=F BraDBF=F KetDBF=F FulRan=T
         wScrn=  0.000000 ICntrl=  100127 IOpCl=  1 I1Cent=           0 NGrid=           0
         NMat0=    1 NMatS0=      1 NMatT0=    0 NMatD0=    1 NMtDS0=    0 NMtDT0=    0
 Symmetry not used in FoFCou.
 Leave Link  703 at Tue Feb 16 04:42:27 2021, MaxMem=    33554432 cpu:         0.0
 (Enter /cm/shared/apps/Gaussian09/g09/l716.exe)
 Dipole        = 7.01367600D-01 1.78722773D+00 6.01112064D-01
 Polarizability= 6.39569027D+01-5.13736520D+00 7.67001960D+01
                 1.37147634D+01 1.05487042D+01 6.25337373D+01
 HyperPolar    =-8.04840205D+00-5.10454782D+00 4.74501287D+01
                 3.00662692D+02-4.78626055D+01-1.40539234D+01
                 7.15589517D+01-9.77480284D+01 3.38724605D+01
                -7.94447571D+01
 -------------------------------------------------------------------
 Center     Atomic                   Forces (Hartrees/Bohr)
 Number     Number              X              Y              Z
 -------------------------------------------------------------------
      1        6           0.000000086   -0.000000222    0.000000364
      2        6          -0.000000550   -0.000000026    0.000000086
      3        6          -0.000000003    0.000000063   -0.000000777
      4        6          -0.000000168    0.000000094    0.000000154
      5        6          -0.000001138   -0.000000250   -0.000001383
      6        6           0.000000071    0.000000333   -0.000000121
      7        1           0.000000773   -0.000000170    0.000000491
      8        1           0.000000279    0.000001273   -0.000000370
      9        1          -0.000000078   -0.000000571    0.000000288
     10        1          -0.000000420    0.000000129   -0.000000334
     11        1          -0.000000859    0.000000158    0.000000257
     12        1          -0.000000085    0.000000138   -0.000000406
     13        6           0.000000868   -0.000000855    0.000000632
     14        1          -0.000000059    0.000000004   -0.000000239
     15        1          -0.000000994    0.000000600   -0.000000995
     16        1          -0.000000810   -0.000001339    0.000000352
     17        1           0.000000584   -0.000000345   -0.000000506
     18        1           0.000000223   -0.000000037    0.000000202
     19        1          -0.000000444   -0.000000585    0.000000441
     20        8           0.000002710    0.000000059    0.000001566
     21        8          -0.000000329    0.000001180    0.000000008
     22        8           0.000000343    0.000000368    0.000000290
 -------------------------------------------------------------------
 Cartesian Forces:  Max     0.000002710 RMS     0.000000663
 Leave Link  716 at Tue Feb 16 04:42:27 2021, MaxMem=    33554432 cpu:         0.0
 (Enter /cm/shared/apps/Gaussian09/g09/l103.exe)

 GradGradGradGradGradGradGradGradGradGradGradGradGradGradGradGradGradGrad
 Berny optimization.
 Search for a saddle point.
 Step number   1 out of a maximum of  100
 All quantities printed in internal units (Hartrees-Bohrs-Radians)
 Swapping is turned off.
 Second derivative matrix not updated -- analytic derivatives used.
 ITU=  0
     Eigenvalues ---   -0.13391   0.00001   0.00023   0.00035   0.00038
     Eigenvalues ---    0.00055   0.00172   0.00348   0.00602   0.01168
     Eigenvalues ---    0.01743   0.02054   0.02109   0.03101   0.03625
     Eigenvalues ---    0.03741   0.04106   0.04339   0.04922   0.04981
     Eigenvalues ---    0.05648   0.05752   0.05981   0.06075   0.06311
     Eigenvalues ---    0.06963   0.07653   0.07771   0.09119   0.09428
     Eigenvalues ---    0.11667   0.12085   0.13516   0.15280   0.17078
     Eigenvalues ---    0.17114   0.21441   0.22198   0.22883   0.24339
     Eigenvalues ---    0.30635   0.31952   0.40919   0.44464   0.49404
     Eigenvalues ---    0.51638   0.53300   0.54230   0.55683   0.57946
     Eigenvalues ---    0.59051   0.61621   0.63747   0.65810   0.68777
     Eigenvalues ---    0.70128   0.79033   0.90749   1.09077   1.66350
 Eigenvectors required to have negative eigenvalues:
                          Y12       Z12       Z21       Y3        X12
   1                    0.63614   0.45453  -0.35796  -0.29461   0.20698
                          Y11       Z3        X21       Z11       X11
   1                    0.18506   0.16282  -0.14591  -0.09127   0.08285
 RFO step:  Lambda0=6.513817263D-13 Lambda= 0.00000000D+00.
 Linear search not attempted -- option 19 set.
 TrRot=  0.000085  0.000095 -0.000208 -0.000003 -0.000014 -0.000003
 Variable       Old X    -DE/DX   Delta X   Delta X   Delta X     New X
                                 (Linear)    (Quad)   (Total)
    X1       10.32105   0.00000   0.00000  -0.00006  -0.00004  10.32102
    Y1       -8.82924   0.00000   0.00000   0.00011   0.00015  -8.82909
    Z1        1.49231   0.00000   0.00000  -0.00022  -0.00028   1.49203
    X2       12.79752   0.00000   0.00000   0.00018   0.00022  12.79774
    Y2       -8.65405   0.00000   0.00000  -0.00023  -0.00020  -8.65425
    Z2       -0.00948   0.00000   0.00000   0.00014   0.00012  -0.00937
    X3       12.84255   0.00000   0.00000   0.00017   0.00023  12.84278
    Y3      -10.45817   0.00000   0.00000   0.00003   0.00006 -10.45812
    Z3       -2.20111   0.00000   0.00000  -0.00007  -0.00010  -2.20121
    X4       10.93446   0.00000   0.00000  -0.00009   0.00000  10.93446
    Y4      -10.36162   0.00000   0.00000  -0.00006  -0.00002 -10.36164
    Z4       -4.09526   0.00000   0.00000   0.00018   0.00013  -4.09513
    X5        7.72333   0.00000   0.00000  -0.00005  -0.00006   7.72327
    Y5       -6.56967   0.00000   0.00000   0.00033   0.00039  -6.56928
    Z5        4.79817   0.00000   0.00000  -0.00037  -0.00047   4.79770
    X6       10.35634   0.00000   0.00000  -0.00003  -0.00004  10.35630
    Y6       -7.13902   0.00000   0.00000  -0.00023  -0.00019  -7.13921
    Z6        3.84315   0.00000   0.00000   0.00002  -0.00004   3.84311
    X7        8.69353   0.00000   0.00000   0.00024   0.00028   8.69381
    Y7       -8.29189   0.00000   0.00000   0.00065   0.00070  -8.29119
    Z7        0.27793   0.00000   0.00000  -0.00038  -0.00047   0.27746
    X8        9.95927   0.00000   0.00000  -0.00057  -0.00057   9.95870
    Y8      -10.81449   0.00000   0.00000   0.00011   0.00016 -10.81433
    Z8        2.05090   0.00000   0.00000  -0.00055  -0.00062   2.05028
    X9       13.09042   0.00000   0.00000   0.00066   0.00072  13.09114
    Y9       -6.69027   0.00000   0.00000  -0.00021  -0.00018  -6.69045
    Z9       -0.68205   0.00000   0.00000   0.00041   0.00039  -0.68167
   X10       14.41918   0.00000   0.00000  -0.00007  -0.00005  14.41913
   Y10       -9.07153   0.00000   0.00000  -0.00070  -0.00068  -9.07220
   Z10        1.25310   0.00000   0.00000   0.00032   0.00031   1.25341
   X11       14.75362   0.00000   0.00000   0.00016   0.00023  14.75386
   Y11      -10.95015   0.00000   0.00000   0.00043   0.00045 -10.94971
   Z11       -2.87113   0.00000   0.00000  -0.00037  -0.00037  -2.87150
   X12       12.52154   0.00000   0.00000   0.00064   0.00069  12.52223
   Y12      -12.99297   0.00000   0.00000  -0.00007  -0.00003 -12.99301
   Z12       -1.81907   0.00000   0.00000  -0.00035  -0.00038  -1.81945
   X13        9.36171   0.00000   0.00000  -0.00063  -0.00051   9.36120
   Y13       -8.27741   0.00000   0.00000  -0.00022  -0.00017  -8.27758
   Z13       -5.03908   0.00000   0.00000   0.00075   0.00067  -5.03841
   X14        7.60096   0.00000   0.00000  -0.00025  -0.00030   7.60066
   Y14       -6.06886   0.00000   0.00000   0.00029   0.00035  -6.06851
   Z14        6.81674   0.00000   0.00000  -0.00038  -0.00048   6.81626
   X15       11.51517   0.00000   0.00000  -0.00054  -0.00057  11.51460
   Y15       -8.01635   0.00000   0.00000  -0.00074  -0.00071  -8.01706
   Z15        5.34885   0.00000   0.00000   0.00011   0.00006   5.34891
   X16       11.29961   0.00000   0.00000   0.00053   0.00054  11.30015
   Y16       -5.31102   0.00000   0.00000  -0.00043  -0.00039  -5.31141
   Z16        3.41558   0.00000   0.00000   0.00045   0.00040   3.41598
   X17        8.27810   0.00000   0.00000  -0.00041  -0.00032   8.27779
   Y17       -7.39929   0.00000   0.00000  -0.00059  -0.00053  -7.39983
   Z17       -3.47514   0.00000   0.00000   0.00112   0.00103  -3.47411
   X18        7.97865   0.00000   0.00000  -0.00085  -0.00072   7.97793
   Y18       -8.87882   0.00000   0.00000  -0.00028  -0.00022  -8.87904
   Z18       -6.47684   0.00000   0.00000   0.00099   0.00089  -6.47595
   X19       10.52450   0.00000   0.00000  -0.00107  -0.00093  10.52357
   Y19       -6.76107   0.00000   0.00000   0.00007   0.00011  -6.76096
   Z19       -5.87323   0.00000   0.00000   0.00068   0.00062  -5.87262
   X20        5.86557   0.00000   0.00000   0.00016   0.00016   5.86573
   Y20       -6.61284   0.00000   0.00000   0.00080   0.00086  -6.61198
   Z20        3.46446   0.00000   0.00000  -0.00067  -0.00080   3.46366
   X21       11.68383   0.00000   0.00000   0.00067   0.00074  11.68456
   Y21      -14.46828   0.00000   0.00000   0.00006   0.00010 -14.46818
   Z21       -3.93889   0.00000   0.00000  -0.00047  -0.00051  -3.93940
   X22       10.28557   0.00000   0.00000   0.00020   0.00029  10.28586
   Y22      -12.64550   0.00000   0.00000  -0.00005   0.00000 -12.64551
   Z22       -5.04295   0.00000   0.00000  -0.00004  -0.00011  -5.04305
         Item               Value     Threshold  Converged?
 Maximum Force            0.000003     0.000450     YES
 RMS     Force            0.000001     0.000300     YES
 Maximum Displacement     0.001031     0.001800     YES
 RMS     Displacement     0.000452     0.001200     YES
 Predicted change in Energy=-1.338537D-10
 Optimization completed.
    -- Stationary point found.
 Lowest energy point so far.  Saving SCF results.
 GradGradGradGradGradGradGradGradGradGradGradGradGradGradGradGradGradGrad

 Largest change from initial coordinates is atom    0       0.000 Angstoms.
 Leave Link  103 at Tue Feb 16 04:42:27 2021, MaxMem=    33554432 cpu:         0.0
 (Enter /cm/shared/apps/Gaussian09/g09/l202.exe)
                          Input orientation:                          
 ---------------------------------------------------------------------
 Center     Atomic      Atomic             Coordinates (Angstroms)
 Number     Number       Type             X           Y           Z
 ---------------------------------------------------------------------
      1          6           0        5.461667   -4.672230    0.789698
      2          6           0        6.772155   -4.579526   -0.005018
      3          6           0        6.795985   -5.534227   -1.164779
      4          6           0        5.786265   -5.483131   -2.167119
      5          6           0        4.087012   -3.476522    2.539082
      6          6           0        5.480339   -3.777807    2.033709
      7          1           0        4.600420   -4.387880    0.147075
      8          1           0        5.270218   -5.722782    1.085291
      9          1           0        6.927151   -3.540337   -0.360927
     10          1           0        7.630303   -4.800446    0.663110
     11          1           0        7.807281   -5.794572   -1.519334
     12          1           0        6.626114   -6.875586   -0.962608
     13          6           0        4.954004   -4.380215   -2.666567
     14          1           0        4.022254   -3.211502    3.607261
     15          1           0        6.093565   -4.242072    2.830489
     16          1           0        5.979497   -2.810472    1.807449
     17          1           0        4.380583   -3.915536   -1.838964
     18          1           0        4.222120   -4.698469   -3.427397
     19          1           0        5.569328   -3.577805   -3.107981
     20          8           0        3.103928   -3.499364    1.833313
     21          8           0        6.182814   -7.656283   -2.084372
     22          8           0        5.442890   -6.691713   -2.668613
 ---------------------------------------------------------------------
                    Distance matrix (angstroms):
                    1          2          3          4          5
     1  C    0.000000
     2  C    1.535430   0.000000
     3  C    2.518615   1.502354   0.000000
     4  C    3.083130   2.542275   1.423668   0.000000
     5  C    2.525814   3.859929   5.029043   5.390943   0.000000
     6  C    1.532287   2.543216   3.878951   4.544081   1.512460
     7  H    1.111560   2.185473   2.802780   2.821577   2.610720
     8  H    1.108011   2.179822   2.725130   3.301804   2.925606
     9  H    2.180083   1.109328   2.153829   2.887629   4.059620
    10  H    2.176108   1.109783   2.139088   3.446263   4.222198
    11  H    3.477526   2.200222   1.102818   2.145024   5.973650
    12  H    3.046521   2.492027   1.367104   2.023641   5.501137
    13  C    3.505533   3.229434   2.641970   1.469194   5.354168
    14  H    3.484867   4.741519   5.988406   6.451007   1.102468
    15  H    2.179257   2.935040   4.257373   5.158561   2.167312
    16  H    2.184058   2.653845   4.113348   4.793499   2.135511
    17  H    2.941291   3.086075   2.984770   2.130958   4.409785
    18  H    4.395572   4.269602   3.527423   2.156512   6.091821
    19  H    4.049847   3.475430   3.017997   2.136013   5.839250
    20  O    2.832610   4.242888   5.173056   5.209004   1.210407
    21  O    4.205342   3.759983   2.392645   2.210585   6.575646
    22  O    4.004819   3.650071   2.330699   1.352802   6.268648
                    6          7          8          9         10
     6  C    0.000000
     7  H    2.169294   0.000000
     8  H    2.174069   1.763758   0.000000
     9  H    2.807835   2.527859   3.098393   0.000000
    10  H    2.747122   3.101079   2.568841   1.769449   0.000000
    11  H    4.701714   3.878100   3.636745   2.682930   2.404718
    12  H    4.459479   3.394630   2.713172   3.402430   2.820915
    13  C    4.767863   2.835782   3.997364   3.148758   4.292542
    14  H    2.218734   3.700139   3.771508   4.928801   4.920446
    15  H    1.107450   3.074321   2.432307   3.372304   2.714936
    16  H    1.111796   2.673371   3.083203   2.476410   2.827485
    17  H    4.028155   2.053238   3.550895   2.968228   4.195726
    18  H    5.679297   3.607829   4.744690   4.249906   5.325257
    19  H    5.146348   3.491474   4.719526   3.064538   4.468064
    20  O    2.401045   2.423293   3.193108   4.408333   4.852861
    21  O    5.700407   4.262134   3.823352   4.523860   4.218967
    22  O    5.532096   3.734368   3.880778   4.178471   4.411581
                   11         12         13         14         15
    11  H    0.000000
    12  H    1.695196   0.000000
    13  C    3.384928   3.453448   0.000000
    14  H    6.876093   6.410094   6.449416   0.000000
    15  H    4.926260   4.648289   5.615631   2.440446   0.000000
    16  H    4.828367   4.961500   4.851036   2.689042   1.763264
    17  H    3.921122   3.817369   1.108903   5.503220   4.984448
    18  H    4.206605   4.073599   1.102634   7.192874   6.547652
    19  H    3.527930   4.073669   1.103328   6.900876   5.998458
    20  O    6.215284   5.623330   4.944451   2.018187   3.237886
    21  O    2.534587   1.436787   3.547048   7.537824   5.985036
    22  O    2.777778   2.084294   2.362633   7.315509   6.055100
                   16         17         18         19         20
    16  H    0.000000
    17  H    4.132072   0.000000
    18  H    5.835796   1.777980   0.000000
    19  H    4.991842   1.771322   1.781259   0.000000
    20  O    2.957049   3.910072   5.510288   5.522747   0.000000
    21  O    6.218480   4.159501   3.794298   4.249485   6.489050
    22  O    5.948707   3.086093   2.457449   3.147293   5.994095
                   21         22
    21  O    0.000000
    22  O    1.348785   0.000000
 Symmetry turned off by external request.
 Stoichiometry    C7H12O3
 Framework group  C1[X(C7H12O3)]
 Deg. of freedom    60
 Full point group                 C1      NOp   1
 Rotational constants (GHZ):      2.3001396      0.5727022      0.5362126
 Leave Link  202 at Tue Feb 16 04:42:27 2021, MaxMem=    33554432 cpu:         0.0
 (Enter /cm/shared/apps/Gaussian09/g09/l716.exe)
 Dipole        = 7.01367600D-01 1.78722773D+00 6.01112064D-01
 Polarizability= 6.39569027D+01-5.13736520D+00 7.67001960D+01
                 1.37147634D+01 1.05487042D+01 6.25337373D+01
 HyperPolar    =-8.04840205D+00-5.10454782D+00 4.74501287D+01
                 3.00662692D+02-4.78626055D+01-1.40539234D+01
                 7.15589517D+01-9.77480284D+01 3.38724605D+01
                -7.94447571D+01
 Full mass-weighted force constant matrix:
 Low frequencies ----1375.9653   -1.0936   -0.8141   -0.0977    0.2130    0.3780
 Low frequencies ---    0.9517    9.4711   43.4781
 ******    1 imaginary frequencies (negative Signs) ****** 
 Diagonal vibrational polarizability:
      836.0629503     624.4105445    1684.7856471
 Harmonic frequencies (cm**-1), IR intensities (KM/Mole), Raman scattering
 activities (A**4/AMU), depolarization ratios for plane and unpolarized
 incident light, reduced masses (AMU), force constants (mDyne/A),
 and normal coordinates:
                      1                      2                      3
                      A                      A                      A
 Frequencies --  -1375.9653                 9.4707                43.4781
 Red. masses --      1.1800                 3.6827                 3.4558
 Frc consts  --      1.3163                 0.0002                 0.0038
 IR Inten    --    547.7528                 9.7272                 5.8087
  Atom  AN      X      Y      Z        X      Y      Z        X      Y      Z
     1   6     0.00   0.00   0.00    -0.02   0.00  -0.03     0.12  -0.13   0.12
     2   6     0.00   0.00   0.01     0.03  -0.07   0.05     0.06  -0.04   0.03
     3   6     0.02  -0.06   0.04     0.02   0.00  -0.01     0.02  -0.01   0.01
     4   6    -0.03  -0.02  -0.03    -0.05  -0.01   0.06    -0.02   0.03   0.05
     5   6     0.00   0.00   0.00    -0.01   0.04  -0.06    -0.02   0.09  -0.14
     6   6     0.00   0.00   0.00    -0.01  -0.09   0.04     0.02   0.10  -0.04
     7   1     0.00   0.00   0.00     0.05   0.13  -0.06     0.04  -0.39   0.11
     8   1     0.00   0.00   0.00    -0.14  -0.01  -0.12     0.32  -0.11   0.31
     9   1     0.00  -0.01  -0.01     0.15  -0.06   0.13    -0.01  -0.02   0.04
    10   1     0.00   0.02   0.01    -0.02  -0.19   0.08     0.12   0.00  -0.03
    11   1     0.07   0.24  -0.15     0.02   0.11  -0.10     0.00  -0.02  -0.03
    12   1     0.22   0.76   0.52     0.15  -0.02  -0.09     0.00  -0.02  -0.02
    13   6     0.00   0.00   0.00    -0.20  -0.05   0.22    -0.02   0.07   0.12
    14   1     0.00   0.00   0.00    -0.06   0.03  -0.05    -0.07   0.36  -0.21
    15   1     0.00   0.00   0.00    -0.13  -0.23   0.05     0.03   0.29   0.06
    16   1     0.00   0.00   0.00     0.13  -0.14   0.15    -0.04   0.10  -0.20
    17   1     0.01   0.00   0.00    -0.15  -0.16   0.33    -0.02   0.02   0.16
    18   1     0.00   0.01   0.00    -0.26  -0.06   0.28    -0.03   0.11   0.11
    19   1     0.00   0.01   0.00    -0.32   0.03   0.21    -0.03   0.09   0.16
    20   8     0.00   0.00   0.00     0.04   0.17  -0.13     0.00  -0.19  -0.16
    21   8    -0.04   0.01  -0.05     0.15   0.02  -0.13    -0.07   0.02  -0.02
    22   8     0.02  -0.02   0.02     0.02  -0.01   0.00    -0.07   0.06   0.03
                      4                      5                      6
                      A                      A                      A
 Frequencies --     49.8732                72.4316                79.0894
 Red. masses --      2.9713                 3.5429                 1.9190
 Frc consts  --      0.0044                 0.0110                 0.0071
 IR Inten    --      4.4342                 1.8669                 5.1079
  Atom  AN      X      Y      Z        X      Y      Z        X      Y      Z
     1   6    -0.06   0.17  -0.12     0.04   0.09  -0.15    -0.03   0.03  -0.04
     2   6     0.06  -0.10   0.05     0.12   0.04  -0.03    -0.01   0.04  -0.01
     3   6     0.02  -0.08   0.03     0.10   0.05  -0.05     0.00   0.04  -0.01
     4   6     0.02  -0.02   0.03     0.01   0.03   0.04     0.00   0.01  -0.01
     5   6     0.01   0.07   0.01    -0.04  -0.21  -0.04     0.03   0.13  -0.04
     6   6    -0.01   0.13  -0.09     0.00  -0.05  -0.05     0.02  -0.14   0.08
     7   1     0.08   0.38  -0.21     0.13   0.25  -0.20     0.00   0.18  -0.02
     8   1    -0.33   0.20  -0.17    -0.09   0.08  -0.28    -0.12   0.01  -0.18
     9   1     0.33  -0.13   0.09     0.22   0.03   0.02     0.00   0.04   0.00
    10   1    -0.07  -0.30   0.15     0.05  -0.06   0.02    -0.03   0.03   0.00
    11   1     0.01  -0.10   0.02     0.08   0.09  -0.11     0.01   0.05  -0.01
    12   1    -0.02  -0.08  -0.02     0.10   0.05   0.00     0.01   0.04   0.02
    13   6     0.02   0.01   0.10     0.01   0.04   0.06     0.00   0.00  -0.05
    14   1     0.11   0.23  -0.03    -0.11  -0.50   0.02     0.06   0.58  -0.15
    15   1     0.04   0.12  -0.14     0.02  -0.10  -0.10    -0.22  -0.41   0.11
    16   1    -0.04   0.15  -0.10    -0.06   0.01   0.06     0.30  -0.24   0.30
    17   1     0.05  -0.03   0.15     0.20   0.19   0.12     0.01   0.03  -0.06
    18   1     0.00   0.06   0.10    -0.17   0.01   0.24    -0.01  -0.03  -0.03
    19   1     0.02   0.03   0.13    -0.01  -0.06  -0.15     0.00  -0.02  -0.08
    20   8    -0.06  -0.15   0.12     0.01  -0.03  -0.12     0.02  -0.12  -0.02
    21   8     0.00  -0.03  -0.08    -0.10   0.01   0.14    -0.01   0.01   0.05
    22   8     0.01   0.01  -0.03    -0.11   0.02   0.16    -0.01   0.00   0.03
                      7                      8                      9
                      A                      A                      A
 Frequencies --     99.7998               188.8598               198.9907
 Red. masses --      1.0607                 4.0518                 2.2795
 Frc consts  --      0.0062                 0.0851                 0.0532
 IR Inten    --      0.5183                 7.0774                 5.9700
  Atom  AN      X      Y      Z        X      Y      Z        X      Y      Z
     1   6    -0.01  -0.02   0.02     0.04   0.20   0.10    -0.02   0.05  -0.03
     2   6    -0.01  -0.02   0.01     0.02   0.02   0.06    -0.08   0.14  -0.13
     3   6    -0.01   0.00   0.01    -0.16  -0.04   0.10    -0.02  -0.08   0.05
     4   6     0.00   0.00   0.00    -0.07  -0.01   0.02     0.05  -0.05   0.00
     5   6     0.00   0.02   0.01    -0.02  -0.09   0.03     0.00  -0.01   0.00
     6   6    -0.01   0.01   0.00     0.08   0.10   0.17     0.01  -0.02   0.01
     7   1    -0.01  -0.05   0.02     0.09   0.36   0.09    -0.08   0.02   0.03
     8   1     0.01  -0.02   0.05    -0.12   0.21   0.03     0.06   0.02  -0.06
     9   1    -0.01  -0.01   0.02     0.14  -0.01   0.01    -0.31   0.10  -0.36
    10   1    -0.01  -0.02   0.01     0.02  -0.06   0.03     0.01   0.45  -0.15
    11   1    -0.01   0.00   0.01    -0.18  -0.20   0.14    -0.01  -0.22   0.18
    12   1     0.00  -0.01  -0.01    -0.23  -0.01   0.12    -0.14  -0.05   0.09
    13   6     0.01   0.00  -0.01    -0.06  -0.05  -0.09     0.06   0.04   0.19
    14   1     0.01   0.05   0.00    -0.25  -0.28   0.06    -0.01  -0.02   0.00
    15   1     0.00   0.03   0.01     0.06   0.06   0.15    -0.02  -0.08  -0.01
    16   1    -0.01   0.01  -0.02     0.04   0.14   0.26     0.04  -0.02   0.07
    17   1     0.44   0.39   0.06    -0.10   0.02  -0.16     0.21   0.00   0.32
    18   1    -0.36  -0.10   0.38    -0.03  -0.13  -0.09    -0.06   0.17   0.26
    19   1    -0.01  -0.27  -0.53    -0.05  -0.09  -0.15     0.06   0.05   0.19
    20   8    -0.01   0.00   0.01     0.13  -0.10  -0.19     0.02  -0.01  -0.02
    21   8     0.02   0.00  -0.03    -0.01   0.00  -0.04    -0.03  -0.04  -0.02
    22   8     0.01   0.00  -0.01     0.05   0.00  -0.10     0.03  -0.02  -0.06
                     10                     11                     12
                      A                      A                      A
 Frequencies --    261.8724               299.7814               356.1984
 Red. masses --      4.7238                 4.1990                 3.3523
 Frc consts  --      0.1909                 0.2223                 0.2506
 IR Inten    --      0.7803                 2.0923                 1.8010
  Atom  AN      X      Y      Z        X      Y      Z        X      Y      Z
     1   6     0.03  -0.04  -0.01     0.26   0.09   0.04     0.08   0.02   0.03
     2   6     0.06  -0.02   0.04     0.22   0.07  -0.07     0.06  -0.06  -0.02
     3   6     0.06   0.03  -0.01     0.05  -0.05  -0.02    -0.12   0.07  -0.13
     4   6     0.16   0.07  -0.11     0.02  -0.03   0.01    -0.15  -0.06  -0.11
     5   6     0.00   0.01  -0.01    -0.14   0.03   0.01    -0.04   0.00   0.00
     6   6    -0.01  -0.02  -0.02    -0.07  -0.02   0.12    -0.01   0.01   0.04
     7   1     0.05  -0.06  -0.04     0.26   0.02   0.01     0.08   0.01   0.02
     8   1     0.04  -0.04   0.00     0.34   0.05  -0.01     0.07   0.02   0.04
     9   1     0.10  -0.01   0.10     0.17   0.03  -0.18     0.21  -0.03   0.13
    10   1     0.03  -0.09   0.05     0.29   0.13  -0.15     0.05  -0.30  -0.09
    11   1     0.06  -0.04   0.06     0.02  -0.17  -0.04    -0.14   0.12  -0.27
    12   1    -0.19   0.11   0.12     0.01  -0.08  -0.08    -0.02   0.13   0.05
    13   6    -0.17  -0.10   0.04     0.00  -0.07  -0.03     0.03   0.15   0.06
    14   1     0.04   0.04  -0.01    -0.09   0.09   0.01    -0.04   0.01   0.00
    15   1    -0.02  -0.01  -0.01    -0.27  -0.13   0.22    -0.06  -0.01   0.08
[...]
 057711,-0.00039697,-0.00013720,0.00020147,0.00031419,-0.00060861,-0.00
 027382,-0.00076089,-0.01720681,-0.01711320,0.01408015,-0.03103225,0.02
 248834,-0.00056910,-0.00000757,-0.00020887,-0.00069071,-0.00912415,-0.
 00135871,-0.00435093,0.08192192,-0.04798362,0.01080440,0.03094010,0.01
 115054,0.00076502,-0.00019577,-0.00004989,-0.00027391,0.00043783,0.000
 26064,0.00023435,-0.00017443,0.00022667,0.00044099,-0.00021400,-0.0003
 6516,-0.00003731,-0.00054117,-0.00069022,-0.00018597,-0.00076513,-0.00
 018065,0.00093278,-0.00261350,0.00480478,0.01333679,-0.08573368,0.0709
 6442,0.00063730,-0.00003527,0.00027591,-0.00081300,0.00047934,-0.00029
 495,-0.01359327,0.02211287,-0.01793586,-0.13336048,0.08282582,-0.04521
 797,-0.00144456,0.00010630,-0.00050782,0.00101123,-0.00019060,-0.00017
 342,-0.00059659,-0.00004027,-0.00003471,-0.00018031,0.00007256,-0.0000
 4281,0.00004594,0.00003847,0.00028206,0.00015657,0.00003705,0.00011870
 ,0.00032723,0.00014264,-0.00037887,-0.00353832,-0.00565983,-0.00277790
 ,0.42593849,-0.00007483,0.00091861,-0.00010267,-0.00036505,-0.00034948
 ,-0.00065975,0.01070657,0.00222838,0.00767669,0.08797682,-0.16863986,0
 .05541927,0.00044963,-0.00031201,0.00044853,-0.00034403,0.00067342,-0.
 00014135,0.00003803,-0.00057189,0.00003277,-0.00001028,-0.00025501,-0.
 00023070,0.00027757,-0.00040059,0.00046055,-0.00006351,-0.00011903,-0.
 00001704,-0.00077873,0.00081140,-0.00007241,-0.00113956,-0.00275325,-0
 .00318670,-0.04153912,0.46486916,-0.00055249,0.00063198,-0.00151138,-0
 .00081030,-0.00003493,-0.00107942,-0.01788835,0.01197966,-0.00000443,-
 0.05050849,0.05343967,-0.09908172,-0.00054182,0.00019453,0.00065660,-0
 .00022313,-0.00012686,-0.00085491,0.00010419,-0.00001586,-0.00077813,-
 0.00001112,-0.00031432,0.00018951,0.00044200,-0.00000247,0.00019597,0.
 00015029,0.00010473,0.00016890,-0.00041112,0.00074443,-0.00228582,0.00
 085342,0.00119438,-0.00040076,0.03744076,-0.02690228,0.40776334,-0.002
 24759,0.00006287,0.00060246,0.00006354,0.00027215,0.00039536,-0.000063
 40,0.00011928,0.00039836,-0.00028894,-0.00005042,-0.00029752,-0.032733
 88,0.00123784,0.02012381,-0.01067116,0.00988558,0.02362213,-0.00036746
 ,-0.00003405,-0.00019428,-0.00010905,-0.00015721,-0.00003176,-0.000001
 15,0.00006815,-0.00006571,0.00009107,-0.00003908,0.00000052,0.00003355
 ,0.00003106,-0.00000570,-0.00001810,-0.00017077,-0.00009869,0.00017338
 ,-0.00007908,0.00007203,0.05574117,-0.00059791,0.00030405,-0.00014639,
 0.00004243,-0.00001860,-0.00002058,-0.00007783,-0.00005563,0.00002188,
 0.00002509,0.00004122,-0.00002209,-0.00008309,-0.06328127,-0.03404714,
 0.00721436,0.01272147,-0.00969472,0.00009024,0.00011899,-0.00014575,0.
 00011806,0.00000766,0.00008176,-0.00001116,0.00001507,0.00002459,-0.00
 000440,0.00002586,0.00001610,0.00000875,0.00000311,0.00000058,0.000026
 13,0.00000771,-0.00001572,-0.00001605,-0.00005833,0.00000878,-0.006737
 42,0.03335317,0.00116876,0.00003506,0.00003381,-0.00002197,-0.00008909
 ,-0.00016195,-0.00000767,0.00001382,-0.00000666,0.00001504,-0.00001843
 ,-0.00001427,0.01555062,-0.03334341,-0.18454439,0.01157799,-0.00906172
 ,-0.01466516,-0.00007250,0.00010191,0.00010393,0.00003490,0.00000889,0
 .00002545,0.00001040,-0.00001628,0.00000800,-0.00001046,0.00000447,-0.
 00000075,0.00000440,-0.00000646,-0.00000424,0.00000891,-0.00001152,-0.
 00000765,-0.00001622,0.00002930,0.00002859,-0.00601547,0.05297296,0.23
 880477,0.00103616,-0.00175512,-0.00915724,-0.00003976,0.00005703,-0.00
 001163,-0.00034578,0.00002731,0.00002103,0.00012248,-0.00002652,-0.000
 06140,-0.03152967,0.01819891,-0.01472048,-0.08523702,0.04267474,-0.069
 25070,-0.00009878,0.00016208,-0.00021006,0.00020646,-0.00040949,-0.000
 33204,0.00001796,0.00001541,0.00008933,-0.00008343,0.00007610,0.000354
 69,0.00005343,-0.00002619,0.00004152,0.00009935,-0.00002872,-0.0000077
 4,-0.00010956,0.00003027,0.00012994,-0.00032079,-0.00053936,0.00061483
 ,0.11299008,-0.00555834,0.00550933,-0.01128343,-0.00020091,-0.00023499
 ,-0.00004741,0.00011789,-0.00027162,-0.00004823,0.00000845,0.00010059,
 0.00007090,0.01136247,-0.00136997,0.00431195,0.04400484,-0.06605247,0.
 05450677,-0.00000652,-0.00090746,-0.00152509,-0.00054108,0.00026435,-0
 .00096537,-0.00004997,0.00003468,0.00007573,0.00005063,0.00015906,-0.0
 0008709,-0.00000520,0.00005043,-0.00004582,-0.00000180,0.00012898,-0.0
 0008428,0.00003084,-0.00011032,-0.00008642,0.00020004,0.00017829,-0.00
 010784,-0.05563509,0.07708958,-0.01388873,-0.00097020,-0.03173762,0.00
 018154,-0.00011566,-0.00074356,-0.00000982,0.00017339,0.00034384,-0.00
 020561,-0.00006969,-0.00023946,-0.00482929,-0.00108883,0.00644383,-0.0
 7055752,0.05415738,-0.12600681,-0.00014931,-0.00149038,-0.00200516,-0.
 00039734,-0.00030456,0.00018304,-0.00000443,0.00003472,-0.00010180,0.0
 0040496,-0.00015908,-0.00028853,0.00005215,-0.00000040,-0.00001216,-0.
 00001123,-0.00020860,-0.00007719,0.00004797,0.00001176,0.00009178,0.00
 089764,-0.00004317,-0.00001269,0.08813285,-0.06140651,0.15947596,0.001
 92390,-0.00681971,-0.00346402,-0.00001580,0.00073062,0.00048086,-0.000
 45023,-0.00008252,0.00004539,0.00020394,-0.00003947,-0.00000357,-0.028
 30477,-0.02201649,0.01377773,-0.06702197,-0.07159845,0.01700423,-0.000
 18705,-0.00029156,-0.00027073,0.00017771,-0.00016151,0.00003127,0.0001
 1659,-0.00001772,0.00034732,-0.00008998,0.00033576,0.00021958,0.000048
 95,0.00001178,0.00003652,0.00007918,0.00002319,-0.00001030,-0.00018038
 ,0.00008212,0.00016149,-0.00027669,0.00204434,0.00039173,0.00610676,0.
 00640056,-0.00312331,0.08838297,-0.00917589,-0.02616343,-0.01056838,0.
 00088940,-0.00099817,-0.00119923,-0.00022389,0.00001895,0.00053781,-0.
 00020109,0.00006169,-0.00030800,-0.01442013,0.00303766,0.00281865,-0.0
 6744255,-0.16425277,0.03188951,-0.00036143,0.00003775,-0.00028753,-0.0
 0022089,-0.00112453,-0.00146291,0.00021791,0.00014655,-0.00044437,0.00
 028574,-0.00015923,-0.00019199,0.00006727,0.00005853,-0.00001283,0.000
 01011,-0.00013344,-0.00008863,0.00000310,-0.00018786,0.00013082,0.0004
 4291,-0.00064008,-0.00001889,-0.00214937,-0.01481363,0.01066437,0.0890
 8225,0.20584261,-0.00803199,-0.02141783,-0.00032829,0.00048330,-0.0012
 7046,-0.00085050,0.00007780,0.00037731,0.00010447,-0.00013851,-0.00023
 968,-0.00012392,0.01186759,0.00759554,0.00020970,0.01796445,0.03438365
 ,-0.04025711,-0.00024688,-0.00060169,-0.00015364,-0.00004346,-0.001466
 88,-0.00189890,0.00037657,-0.00003129,-0.00061848,0.00021080,-0.000240
 27,0.00005725,0.00003004,-0.00004457,0.00000957,-0.00004176,-0.0001779
 5,0.00000403,0.00004460,0.00021735,0.00018447,0.00017729,-0.00085981,-
 0.00019061,0.00267355,0.01719110,-0.00563349,-0.02508736,-0.03305858,0
 .05043966,-0.00025279,-0.00008061,-0.00022494,-0.00003687,0.00007709,-
 0.00007893,0.00009649,-0.00043630,-0.00074575,-0.01429159,0.02161098,0
 .01100029,0.00077410,-0.00004795,0.00022184,-0.00043061,0.00005163,0.0
 0017896,0.00038766,0.00007839,-0.00037656,0.00006975,0.00000832,0.0000
 0624,-0.00026495,0.00000297,-0.00024880,-0.00004587,-0.00002688,-0.000
 04271,0.00000850,0.00004267,0.00014358,-0.00005977,0.00006215,-0.00015
 028,-0.08050509,0.03855649,0.06923295,-0.00009188,0.00000903,0.0000044
 6,0.00003419,0.00000951,-0.00001195,0.00006060,0.00001298,-0.00005191,
 0.09737757,0.00009072,-0.00033285,0.00019572,0.00011798,-0.00003660,0.
 00021046,-0.00106340,-0.00046568,0.00015332,0.02335871,-0.01987911,-0.
 01212436,-0.00023065,0.00017902,-0.00018032,0.00009708,-0.00031890,-0.
 00000902,-0.00009868,0.00041554,0.00009715,0.00005242,0.00002867,0.000
 13885,-0.00008843,0.00015819,-0.00008875,0.00001483,0.00003562,0.00001
 373,0.00010214,-0.00014843,-0.00016219,0.00024520,0.00017734,0.0001988
 1,0.03840700,-0.06180162,-0.05694637,0.00003934,0.00003728,-0.00001524
 ,0.00000169,0.00002440,-0.00000780,-0.00004042,0.00009462,-0.00009813,
 -0.05645282,0.07906208,-0.00056883,-0.00018122,-0.00058034,-0.00005367
 ,0.00021200,0.00029462,-0.00038267,0.00038078,-0.00187432,0.00421727,-
 0.00466323,0.00989521,-0.00001884,-0.00005292,-0.00053700,0.00039653,-
 0.00007807,0.00044044,0.00083692,-0.00051230,0.00196229,0.00001251,0.0
 0020810,-0.00003041,-0.00027442,-0.00000973,-0.00008706,0.00000832,-0.
 00000338,-0.00003098,0.00016309,-0.00018301,0.00014489,-0.00026385,-0.
 00008806,0.00039305,0.06725899,-0.05503380,-0.13223656,0.00000246,0.00
 000420,-0.00001881,-0.00008964,0.00006313,-0.00002730,-0.00014276,-0.0
 0005238,-0.00011043,-0.08502299,0.06915807,0.15150706,-0.00005572,-0.0
 0004698,0.00005207,0.00006292,-0.00003526,0.00003602,-0.00002535,0.000
 84679,-0.00011115,-0.02009934,0.00769949,-0.02095160,0.00033560,-0.000
 02499,0.00003362,-0.00017129,0.00002428,0.00010067,0.00010274,0.000034
 91,-0.00002584,0.00004564,0.00000675,-0.00000365,-0.00002322,-0.000010
 90,-0.00002466,-0.00002013,-0.00001047,-0.00001850,-0.00008259,0.00020
 345,-0.00012204,-0.00004966,-0.00004071,-0.00050021,-0.11333657,-0.035
 31808,-0.08173304,-0.00003859,0.00000647,0.00000089,0.00001306,0.00000
 161,-0.00001166,0.00001797,-0.00000252,-0.00002581,0.00718329,0.001650
 12,0.00291792,0.13844236,0.00000115,-0.00005744,0.00000025,-0.00004483
 ,0.00005193,-0.00013249,0.00092652,-0.00202840,-0.00029098,0.01782306,
 0.00570467,0.01729205,-0.00004823,0.00004641,-0.00004003,0.00001961,-0
 .00006878,0.00001237,-0.00001103,0.00006829,-0.00001310,0.00001287,0.0
 0002758,0.00001979,-0.00000586,0.00003889,-0.00000730,-0.00000503,0.00
 001295,-0.00001244,0.00011097,-0.00032556,0.00030485,0.00018811,0.0002
 5834,0.00027661,-0.03678934,-0.05205522,-0.03787312,0.00000892,0.00000
 791,-0.00000342,0.,0.00001183,-0.00000390,-0.00000630,0.00002054,-0.00
 001786,-0.00403727,-0.00158735,-0.01075270,0.03657842,0.05806180,0.000
 08688,-0.00003666,0.00006668,0.00010678,-0.00002382,0.00010324,-0.0001
 7509,0.00015140,0.00045555,-0.01823660,0.00644810,-0.01076086,0.000053
 09,-0.00004848,-0.00014864,0.00004382,0.00005716,0.00015417,-0.0000795
 4,-0.00001158,-0.00015507,-0.00001489,0.00003102,-0.00005742,-0.000061
 89,-0.00001849,-0.00002116,-0.00003275,-0.00000965,-0.00001173,-0.0002
 4134,0.00012870,-0.00005261,-0.00011424,0.00019744,-0.00006858,-0.0827
 4694,-0.03627574,-0.12125499,-0.00000787,-0.00000549,-0.00000635,-0.00
 002579,0.00000659,-0.00002549,-0.00002986,-0.00002963,-0.00003106,-0.0
 0810432,-0.01120774,-0.01801865,0.10851427,0.04028724,0.14355956,-0.00
 009743,-0.00004559,-0.00006705,0.00006318,0.00010138,0.00010861,-0.001
 34620,-0.00073136,0.00042322,0.01069529,0.00816716,-0.00418401,0.00018
 669,-0.00000466,0.00009281,-0.00014604,-0.00003174,-0.00002121,0.00007
 605,-0.00000926,0.00009338,0.00000439,-0.00000056,0.00003789,0.0000428
 2,0.00002076,-0.00011668,0.00001337,0.00001972,-0.00002387,0.00012797,
 0.00012694,-0.00029599,0.00038564,0.00052529,0.00041645,-0.09120164,-0
 .07543677,0.03990648,-0.00001933,0.00000389,0.00000382,0.00002415,0.00
 000241,0.00000006,0.00004533,0.00002238,-0.00001235,-0.00870373,-0.007
 09500,0.01186150,-0.01184205,-0.01451993,0.00088706,0.10373536,-0.0000
 2193,-0.00011329,-0.00005577,-0.00006763,0.00006370,0.00017434,-0.0009
 4812,0.00087510,-0.00131299,-0.00094067,-0.03296660,0.01932245,-0.0001
 0349,0.00009272,-0.00001926,0.00003034,-0.00018084,-0.00004656,0.00000
 788,0.00010330,0.00004378,-0.00001040,0.00001584,0.00005629,0.00001889
 ,0.00013985,-0.00006980,0.00003806,0.00002896,0.00000237,0.00024628,-0
 .00013159,0.00002165,-0.00040720,-0.00086644,-0.00016833,-0.07535767,-
 0.12670352,0.05267227,0.00002160,0.00001425,-0.00000557,0.00000715,0.0
 0002306,0.00000730,0.00000703,0.00007727,-0.00003881,0.00037766,0.0058
 7354,0.00039726,-0.01181688,-0.00684958,0.00013940,0.08757103,0.161496
 15,0.00002634,-0.00020581,0.00005611,0.00022427,0.00008827,0.00023416,
 -0.00018995,-0.00090200,-0.00013279,0.00238134,0.01742616,-0.00363625,
 0.00016858,-0.00002486,-0.00016252,-0.00001301,-0.00001008,0.00022592,
 0.00003469,0.00011316,-0.00016749,0.00000433,0.00006342,-0.00001579,-0
 .00021162,0.00000324,-0.00017716,-0.00004843,-0.00000890,-0.00002162,-
 0.00014111,-0.00003936,0.00010153,0.00007336,0.00058263,0.00036030,0.0
 3945130,0.05367144,-0.06260820,-0.00001991,0.00000416,-0.00000922,-0.0
 0002376,0.00001977,-0.00003342,-0.00003033,-0.00001063,-0.00007838,0.0
 1571856,0.00934557,-0.01006971,-0.00840262,-0.00844088,0.00631874,-0.0
 4820690,-0.07179797,0.07019344,-0.00052879,0.00031095,-0.00144152,0.00
 030565,-0.00022956,-0.00010429,0.00024503,0.00053142,0.00140268,-0.001
 24008,-0.00037828,-0.00131447,-0.50659156,-0.01524031,-0.34643578,-0.0
 7662972,0.00814224,-0.01380914,-0.00137783,0.00011954,0.00062432,-0.00
 051431,-0.00051513,-0.00013083,-0.00002748,0.00013149,-0.00027207,0.00
 021580,-0.00017674,-0.00010420,0.00009529,0.00009778,-0.00010096,-0.00
 012255,-0.00072900,-0.00045687,0.00082702,-0.00015377,0.00044220,-0.00
 897127,-0.00150326,-0.02324106,-0.00288983,-0.00015248,0.00338769,-0.0
 0057496,0.00308927,-0.00031439,-0.00044595,0.00006855,-0.00012726,-0.0
 0022381,0.00001927,-0.00005296,-0.00010484,0.00005322,-0.00013173,0.59
 799224,0.00148457,-0.00002544,-0.00024631,0.00009569,0.00026400,0.0002
 6024,0.00022840,0.00011656,-0.00022342,0.00001618,-0.00020679,0.000291
 88,-0.01161887,-0.05570327,-0.00937736,0.00884334,0.01636350,0.0002641
 3,-0.00043245,-0.00064129,0.00002369,-0.00049537,0.00015103,0.00001539
 ,0.00006428,-0.00011370,-0.00000406,-0.00000115,-0.00001044,-0.0000735
 7,-0.00006973,-0.00001350,0.00003493,-0.00012690,0.00005263,0.00013279
 ,-0.00001440,0.00040978,-0.00017468,-0.00531682,0.01723124,-0.01048299
 ,-0.00069061,0.00026702,0.00061665,0.00239043,-0.00106189,-0.00039286,
 0.00000098,-0.00026262,0.00004017,-0.00000680,-0.00006764,0.00005706,0
 .00000146,-0.00011141,0.00000912,0.00560566,0.02341111,0.00300401,-0.0
 0180806,-0.00083586,0.00037848,0.00012830,0.00054296,0.00044632,-0.000
 14336,0.00045996,-0.00076345,0.00031774,-0.00023338,-0.32999727,-0.011
 53621,-0.31098653,-0.01409473,-0.00008330,0.01704949,-0.00175526,0.000
 73947,-0.00037557,-0.00031349,0.00023284,-0.00005345,-0.00010156,0.000
 01661,-0.00014932,0.00009178,-0.00005602,-0.00020315,-0.00007199,0.000
 12620,-0.00002580,-0.00011196,0.00006103,-0.00008051,0.00083818,-0.000
 51698,-0.00057351,-0.03975905,-0.00814388,-0.03937568,0.00182068,-0.00
 056655,0.00022038,-0.00030150,0.00151380,-0.00085209,-0.00045487,0.000
 21734,0.00055644,-0.00010550,0.00005522,0.00015948,-0.00014193,0.00001
 435,0.00013298,0.38124017,0.01942249,0.33450433,0.00021604,0.00015937,
 0.00049698,-0.00063456,-0.00381437,0.00396535,0.00883947,-0.05823312,0
 .01346729,-0.00410159,0.02723158,-0.01281141,0.00002292,-0.00005814,-0
 .00023457,0.00010563,0.00010542,0.00032893,-0.00002151,-0.00010824,-0.
 00031549,-0.00010722,0.00003285,-0.00018580,-0.00023088,-0.00071123,-0
 .00086935,-0.00002913,0.00033905,0.00031008,0.00099679,0.00777622,-0.0
 0422289,-0.00241099,0.04882378,0.01698865,0.00506777,0.00083927,-0.006
 29086,-0.00001013,-0.00001326,-0.00001293,-0.00007550,0.00004300,-0.00
 004057,-0.00006535,-0.00003144,-0.00005298,0.00084841,-0.00154999,0.00
 033135,0.00038503,-0.00018940,0.00054562,-0.00055027,0.00016694,0.0000
 6407,-0.00002503,0.00008799,0.00023632,0.08770834,-0.00010844,0.000449
 23,-0.00020905,-0.00008507,-0.00112659,0.00129074,-0.00676962,-0.04316
 337,-0.00302485,0.02339455,-0.11848143,0.00867774,-0.00095386,0.000062
 50,0.00040096,0.00041228,-0.00013045,-0.00100553,-0.00017735,-0.000009
 39,0.00048404,-0.00009477,-0.00044596,0.00024209,0.00024767,-0.0001532
 7,-0.00019867,0.00030847,-0.00004327,0.00031314,0.00128021,0.00101462,
 -0.00154753,0.00211681,-0.01573932,-0.02586408,0.00233609,-0.00699833,
 -0.00201333,0.00011856,-0.00001085,0.00002215,0.00005344,-0.00013342,0
 .00016774,0.00003114,0.00009179,0.00019989,-0.00051477,-0.00005563,0.0
 0113276,-0.00163197,-0.00024968,-0.00148043,0.00066577,0.00060685,-0.0
 0041526,0.00059448,-0.00001531,-0.00029913,-0.09417491,0.30982475,0.00
 041395,0.00009333,0.00066276,-0.00181641,-0.00281363,0.00527884,0.0072
 9421,-0.09955774,0.02316638,-0.01473523,0.00389197,-0.01867033,-0.0005
 9230,0.00020673,-0.00005995,0.00025048,-0.00034044,-0.00006586,-0.0001
 9193,0.00018366,-0.00044561,-0.00011222,0.00023812,0.00009882,-0.00003
 794,-0.00072231,-0.00103345,0.00020198,0.00052769,0.00041717,0.0052083
 9,0.00966205,-0.00661580,0.01668615,0.06714760,-0.00079313,-0.00314424
 ,0.00058677,0.00419553,0.00008144,0.00001752,0.00000188,-0.00000848,0.
 00008202,0.00005740,-0.00003175,0.00008527,-0.00001603,0.00016341,-0.0
 0003265,-0.00083150,0.00093708,-0.00040143,0.00009964,0.00052502,-0.00
 131328,-0.00019598,0.00034682,-0.00017023,0.00018192,0.03670742,-0.020
 29022,0.05591785,0.00001832,0.00008069,-0.00030951,-0.00222759,0.00564
 339,-0.00530452,-0.01398626,-0.00406144,-0.04623599,-0.09001598,-0.086
 35864,-0.04415208,-0.00096760,0.00008376,0.00019380,0.00054403,-0.0001
 9359,-0.00079951,-0.00026806,0.00004879,0.00024755,-0.00011867,-0.0003
 5596,0.00015216,0.00029448,0.00102150,0.00079163,0.00023068,-0.0008564
 5,-0.00070148,-0.00027935,-0.00736412,0.00342607,-0.01696968,-0.025786
 66,-0.03380931,0.00467443,0.01634436,0.01003614,0.00012637,-0.00000511
 ,0.00001162,0.00002594,-0.00008097,0.00013610,0.00000326,0.00010606,0.
 00014133,-0.00171138,0.00237359,-0.00106223,-0.00062028,-0.00003137,-0
 .00031331,-0.00138855,0.00112842,-0.00072777,0.00058738,-0.00004599,-0
 .00008525,-0.09592939,0.07294894,-0.04814547,0.21797880,0.00042914,0.0
 0000288,0.00041786,-0.00168835,-0.00008673,0.00188548,-0.03174674,-0.0
 2854411,-0.04103916,-0.08534245,-0.24305594,-0.11151217,-0.00055687,0.
 00007538,-0.00021309,0.00043209,-0.00012380,0.00003680,-0.00025509,-0.
 00000538,-0.00052435,-0.00015457,0.00004571,-0.00007471,-0.00001759,0.
 00000129,-0.00046081,0.00010747,0.00004993,0.00005576,0.00160426,-0.00
 249986,-0.00043524,0.00197938,0.01696302,0.01486951,0.01304847,-0.0485
 9466,0.00338845,0.00007686,-0.00000200,-0.00000766,-0.00004361,0.00005
 228,0.00003510,-0.00006484,0.00004698,-0.00000804,0.00069557,-0.001197
 29,0.00001467,0.00189385,-0.00102159,0.00164399,0.00064728,-0.00148682
 ,0.00052832,0.00031754,-0.00003332,0.00030974,0.07327787,-0.12529258,0
 .04291846,0.02536328,0.43470425,0.00010386,0.00019639,-0.00010514,-0.0
 0176407,0.00075894,-0.00157707,-0.04511454,-0.00004618,-0.03507230,-0.
 04701370,-0.10999730,-0.09467984,-0.00097154,0.00007910,0.00018264,0.0
 0049902,-0.00017411,-0.00073810,-0.00025826,0.00000219,0.00018679,-0.0
 0014117,-0.00030860,0.00014327,0.00016059,0.00048220,0.00020082,0.0002
 1962,-0.00034488,-0.00013749,-0.00203749,-0.00852947,0.00071887,-0.027
 03572,-0.02113716,-0.03589984,0.00751493,0.00458269,0.00919458,0.00012
 242,-0.00000809,0.00001194,0.00002067,-0.00007437,0.00012841,-0.000000
 43,0.00009327,0.00013371,-0.00115654,0.00114379,-0.00074091,-0.0005563
 8,-0.00025815,-0.00030426,-0.00128671,0.00197689,-0.00031459,0.0005923
 3,-0.00002314,-0.00006425,-0.04840455,0.04341473,-0.06135030,0.1665082
 5,0.08817151,0.22008314\\-0.00000009,0.00000022,-0.00000036,0.00000055
 ,0.00000003,-0.00000009,0.,-0.00000006,0.00000078,0.00000017,-0.000000
 09,-0.00000015,0.00000114,0.00000025,0.00000138,-0.00000007,-0.0000003
 3,0.00000012,-0.00000077,0.00000017,-0.00000049,-0.00000028,-0.0000012
 7,0.00000037,0.00000008,0.00000057,-0.00000029,0.00000042,-0.00000013,
 0.00000033,0.00000086,-0.00000016,-0.00000026,0.00000009,-0.00000014,0
 .00000041,-0.00000087,0.00000085,-0.00000063,0.00000006,0.,0.00000024,
 0.00000099,-0.00000060,0.00000099,0.00000081,0.00000134,-0.00000035,-0
 .00000058,0.00000034,0.00000051,-0.00000022,0.00000004,-0.00000020,0.0
 0000044,0.00000059,-0.00000044,-0.00000271,-0.00000006,-0.00000157,0.0
 0000033,-0.00000118,0.,-0.00000034,-0.00000037,-0.00000029\\\@


 I DON'T PRETEND TO UNDERSTAND THE UNIVERSE --
 IT'S A GREAT DEAL BIGGER THAN I AM.
       -- ATTR. TO WILLIAM ALLINGHAM (1828-89)
 Job cpu time:       0 days  0 hours  0 minutes  1.3 seconds.
 File lengths (MBytes):  RWF=     50 Int=      0 D2E=      0 Chk=      2 Scr=      1
 Normal termination of Gaussian 09 at Tue Feb 16 04:42:27 2021.
