22
Properties=species:S:1:pos:R:3:momenta:R:3:forces:R:3 pbc="F F F"
C        5.11239856      -4.36335942       0.72335325       0.70945475       0.22548111      -0.30803299       0.03305019      -0.06571181       0.07609711
C        6.44849667      -4.60280922       0.00799735       0.13801317      -0.84258132      -0.14260431       0.01191402       0.02324826      -0.00028114
C        6.47314995      -5.64761526      -1.05900403      -1.90700270       0.05442190       1.19728575       0.32632170      -0.02894629       0.00353126
C        5.91164333      -5.54598022      -2.32396494       0.68896604       0.45306711       1.18674275      -0.09241401      -0.06315285       0.00861204
C        4.43886611      -3.78672906       3.13511549      -0.16981255      -1.70349821       0.52967187       0.08206359      -0.02194536       0.00048591
C        5.35372670      -3.49602986       1.96804588       0.51516237       1.44225197       0.54162313       0.01037166       0.03647750       0.03145019
H        4.37221348      -3.88802006       0.05585356      -0.54977527      -0.39585525      -0.24050846       0.02967415       0.00078750      -0.01633941
H        4.64817946      -5.31785600       1.02574692      -0.70134913       0.09323320       0.28344478      -0.04668552      -0.19456918       0.00942827
H        6.79761150      -3.64082274      -0.42118474      -0.33632299       0.15684068      -0.25327772       0.03413487       0.06143700      -0.06244555
H        7.21601240      -4.86984415       0.77194373       0.05963463       0.19315127      -0.19699583      -0.03217013      -0.02310295      -0.03199243
H        7.41553724      -6.25879084      -1.01695461       0.43407935       0.45676824      -0.03159067      -0.04849486      -0.06282985       0.08493409
H        6.17194007      -7.08885536      -1.02181672      -0.01464734      -0.32541083       0.03994883       0.57724596      -0.75113502      -1.16026412
C        5.26412664      -4.39946483      -2.97934210      -0.81768644      -1.05944942      -1.44059051       0.02797701       0.04449114      -0.01816170
H        4.74090266      -3.29520840       4.07695130      -0.21286798      -0.10312123       0.07609655      -0.04457152       0.03798310      -0.00657919
H        6.40184905      -3.62117574       2.32162322       0.27973634       0.29855578       0.54030660      -0.01122869       0.03457740      -0.00973141
H        5.26211140      -2.42716497       1.69857943      -0.44215639       0.32917033      -0.09982078       0.00871261       0.09895801       0.00219694
H        4.53071181      -3.90276110      -2.32245802      -0.18812604      -0.12077646       0.15475312      -0.07021417      -0.09290243       0.04861840
H        4.75477463      -4.63834433      -3.92296881       0.10488036       0.02725909      -0.30339295      -0.01400226      -0.11560237      -0.02288015
H        6.02240791      -3.63273384      -3.19845729      -0.14305714       0.41637097      -0.56012037       0.08607551       0.13900453      -0.11744837
O        3.46969397      -4.50473185       3.08345617      -0.95384889      -0.44124703      -1.31373231      -0.11427116      -0.07287572      -0.07140786
O        6.48148805      -7.71102602      -2.31165994      -1.12732251       1.14859045       1.65887605      -0.84423390       1.07036038       1.28852711
O        5.88631402      -6.70938382      -3.04929006      -1.15272917      -1.47269043      -0.99397236       0.09074494      -0.05455097      -0.03634999
