9
Properties=species:S:1:pos:R:3 energy=-724.8385801842026 pbc="F F F"
C        0.25180435       0.40966876      -0.87998976
C       -0.16037820      -0.21334803       0.41060396
H        0.39452799       1.49459372      -0.77973979
H        1.18330357      -0.02933600      -1.26348192
H       -0.51593162       0.25852278      -1.65568320
C       -1.27646559      -0.85793904       0.62136711
H       -2.13291798      -1.37164515       0.84316512
O        0.72348402      -0.09505831       1.47919861
H        1.53257346       0.40454127       1.22455988
9
Properties=species:S:1:pos:R:3 energy=-724.838579039391 pbc="F F F"
C        0.25180442       0.40966816      -0.87998778
C       -0.16037166      -0.21334635       0.41060934
H        0.39452447       1.49459376      -0.77974449
H        1.18330033      -0.02933649      -1.26348679
H       -0.51594357       0.25851165      -1.65566760
C       -1.27646191      -0.85793554       0.62136207
H       -2.13291911      -1.37163966       0.84314599
O        0.72348862      -0.09505760       1.47920389
H        1.53257841       0.40454208       1.22456537
9
Properties=species:S:1:pos:R:3 energy=-724.8385778909152 pbc="F F F"
C        0.25180449       0.40966757      -0.87998580
C       -0.16036511      -0.21334467       0.41061473
H        0.39452094       1.49459380      -0.77974920
H        1.18329708      -0.02933699      -1.26349167
H       -0.51595553       0.25850049      -1.65565198
C       -1.27645823      -0.85793203       0.62135701
H       -2.13292024      -1.37163417       0.84312684
O        0.72349323      -0.09505689       1.47920918
H        1.53258337       0.40454290       1.22457088
9
Properties=species:S:1:pos:R:3 energy=-724.8385767387628 pbc="F F F"
C        0.25180455       0.40966698      -0.87998382
C       -0.16035854      -0.21334298       0.41062013
H        0.39451741       1.49459383      -0.77975392
H        1.18329383      -0.02933749      -1.26349656
H       -0.51596752       0.25848932      -1.65563633
C       -1.27645455      -0.85792852       0.62135195
H       -2.13292136      -1.37162866       0.84310767
O        0.72349785      -0.09505618       1.47921448
H        1.53258833       0.40454371       1.22457640
9
Properties=species:S:1:pos:R:3 energy=-724.8385755829328 pbc="F F F"
C        0.25180462       0.40966638      -0.87998183
C       -0.16035197      -0.21334130       0.41062553
H        0.39451388       1.49459387      -0.77975864
H        1.18329058      -0.02933799      -1.26350145
H       -0.51597952       0.25847814      -1.65562066
C       -1.27645086      -0.85792500       0.62134687
H       -2.13292249      -1.37162315       0.84308847
O        0.72350246      -0.09505548       1.47921979
H        1.53259330       0.40454453       1.22458193
9
Properties=species:S:1:pos:R:3 energy=-724.8385744233843 pbc="F F F"
C        0.25180469       0.40966579      -0.87997985
C       -0.16034539      -0.21333961       0.41063095
H        0.39451034       1.49459391      -0.77976337
H        1.18328732      -0.02933850      -1.26350636
H       -0.51599154       0.25846693      -1.65560496
C       -1.27644717      -0.85792147       0.62134177
H       -2.13292361      -1.37161763       0.84306925
O        0.72350709      -0.09505477       1.47922510
H        1.53259827       0.40454534       1.22458747
9
Properties=species:S:1:pos:R:3 energy=-724.8385732601263 pbc="F F F"
C        0.25180477       0.40966519      -0.87997786
C       -0.16033880      -0.21333792       0.41063637
H        0.39450679       1.49459396      -0.77976811
H        1.18328405      -0.02933900      -1.26351127
H       -0.51600357       0.25845571      -1.65558924
C       -1.27644347      -0.85791794       0.62133667
H       -2.13292474      -1.37161211       0.84305000
O        0.72351172      -0.09505406       1.47923042
H        1.53260325       0.40454616       1.22459301
9
Properties=species:S:1:pos:R:3 energy=-724.8385720931528 pbc="F F F"
C        0.25180484       0.40966460      -0.87997586
C       -0.16033220      -0.21333622       0.41064179
H        0.39450324       1.49459400      -0.77977286
H        1.18328079      -0.02933950      -1.26351619
H       -0.51601563       0.25844447      -1.65557349
C       -1.27643977      -0.85791440       0.62133155
H       -2.13292586      -1.37160657       0.84303073
O        0.72351635      -0.09505335       1.47923575
H        1.53260824       0.40454697       1.22459857
9
Properties=species:S:1:pos:R:3 energy=-724.8385709224382 pbc="F F F"
C        0.25180491       0.40966401      -0.87997387
C       -0.16032558      -0.21333452       0.41064722
H        0.39449969       1.49459404      -0.77977762
H        1.18327751      -0.02934000      -1.26352112
H       -0.51602770       0.25843322      -1.65555772
C       -1.27643607      -0.85791085       0.62132643
H       -2.13292698      -1.37160103       0.84301144
O        0.72352099      -0.09505265       1.47924109
H        1.53261323       0.40454779       1.22460414
9
Properties=species:S:1:pos:R:3 energy=-724.838569747964 pbc="F F F"
C        0.25180499       0.40966341      -0.87997187
C       -0.16031896      -0.21333282       0.41065266
H        0.39449613       1.49459408      -0.77978238
H        1.18327424      -0.02934050      -1.26352605
H       -0.51603979       0.25842194      -1.65554192
C       -1.27643236      -0.85790730       0.62132129
H       -2.13292810      -1.37159548       0.84299212
O        0.72352563      -0.09505194       1.47924644
H        1.53261823       0.40454860       1.22460972
9
Properties=species:S:1:pos:R:3 energy=-724.83856856974 pbc="F F F"
C        0.25180506       0.40966282      -0.87996987
C       -0.16031233      -0.21333112       0.41065811
H        0.39449256       1.49459413      -0.77978715
H        1.18327095      -0.02934100      -1.26353100
H       -0.51605190       0.25841065      -1.65552610
C       -1.27642864      -0.85790374       0.62131613
H       -2.13292922      -1.37158992       0.84297278
O        0.72353028      -0.09505123       1.47925179
H        1.53262324       0.40454942       1.22461531
9
Properties=species:S:1:pos:R:3 energy=-724.8385673877402 pbc="F F F"
C        0.25180514       0.40966222      -0.87996787
C       -0.16030569      -0.21332941       0.41066356
H        0.39448899       1.49459417      -0.77979193
H        1.18326767      -0.02934151      -1.26353595
H       -0.51606403       0.25839935      -1.65551026
C       -1.27642492      -0.85790018       0.62131097
H       -2.13293034      -1.37158435       0.84295342
O        0.72353494      -0.09505052       1.47925716
H        1.53262825       0.40455023       1.22462091
9
Properties=species:S:1:pos:R:3 energy=-724.838566201963 pbc="F F F"
C        0.25180522       0.40966162      -0.87996587
C       -0.16029904      -0.21332770       0.41066902
H        0.39448542       1.49459422      -0.77979672
H        1.18326438      -0.02934201      -1.26354091
H       -0.51607618       0.25838802      -1.65549439
C       -1.27642120      -0.85789661       0.62130579
H       -2.13293146      -1.37157878       0.84293403
O        0.72353959      -0.09504981       1.47926253
H        1.53263327       0.40455105       1.22462652
9
Properties=species:S:1:pos:R:3 energy=-724.838565012356 pbc="F F F"
C        0.25180530       0.40966103      -0.87996386
C       -0.16029238      -0.21332599       0.41067449
H        0.39448184       1.49459426      -0.77980152
H        1.18326108      -0.02934252      -1.26354589
H       -0.51608834       0.25837668      -1.65547849
C       -1.27641747      -0.85789303       0.62130060
H       -2.13293258      -1.37157319       0.84291462
O        0.72354426      -0.09504911       1.47926791
H        1.53263830       0.40455186       1.22463214
9
Properties=species:S:1:pos:R:3 energy=-724.8385638189529 pbc="F F F"
C        0.25180538       0.40966043      -0.87996186
C       -0.16028571      -0.21332427       0.41067997
H        0.39447825       1.49459431      -0.77980632
H        1.18325778      -0.02934302      -1.26355087
H       -0.51610053       0.25836532      -1.65546257
C       -1.27641374      -0.85788944       0.62129540
H       -2.13293370      -1.37156760       0.84289518
O        0.72354893      -0.09504840       1.47927330
H        1.53264333       0.40455268       1.22463777
9
Properties=species:S:1:pos:R:3 energy=-724.8385626217249 pbc="F F F"
C        0.25180546       0.40965984      -0.87995985
C       -0.16027902      -0.21332256       0.41068545
H        0.39447466       1.49459436      -0.77981114
H        1.18325448      -0.02934352      -1.26355585
H       -0.51611273       0.25835394      -1.65544662
C       -1.27641000      -0.85788585       0.62129018
H       -2.13293481      -1.37156200       0.84287572
O        0.72355360      -0.09504769       1.47927869
H        1.53264837       0.40455349       1.22464342
9
Properties=species:S:1:pos:R:3 energy=-724.8385614206488 pbc="F F F"
C        0.25180554       0.40965924      -0.87995783
C       -0.16027233      -0.21332083       0.41069093
H        0.39447107       1.49459441      -0.77981596
H        1.18325117      -0.02934403      -1.26356085
H       -0.51612495       0.25834254      -1.65543065
C       -1.27640626      -0.85788226       0.62128495
H       -2.13293593      -1.37155640       0.84285624
O        0.72355828      -0.09504698       1.47928410
H        1.53265341       0.40455431       1.22464907
9
Properties=species:S:1:pos:R:3 energy=-724.8385602157439 pbc="F F F"
C        0.25180562       0.40965864      -0.87995582
C       -0.16026563      -0.21331911       0.41069643
H        0.39446747       1.49459445      -0.77982079
H        1.18324786      -0.02934453      -1.26356585
H       -0.51613719       0.25833113      -1.65541466
C       -1.27640251      -0.85787866       0.62127971
H       -2.13293704      -1.37155078       0.84283673
O        0.72356297      -0.09504627       1.47928951
H        1.53265846       0.40455512       1.22465473
9
Properties=species:S:1:pos:R:3 energy=-724.8385590069635 pbc="F F F"
C        0.25180571       0.40965805      -0.87995380
C       -0.16025892      -0.21331738       0.41070193
H        0.39446386       1.49459450      -0.77982562
H        1.18324454      -0.02934504      -1.26357087
H       -0.51614944       0.25831970      -1.65539864
C       -1.27639876      -0.85787505       0.62127446
H       -2.13293816      -1.37154516       0.84281720
O        0.72356766      -0.09504557       1.47929494
H        1.53266352       0.40455594       1.22466040
9
Properties=species:S:1:pos:R:3 energy=-724.8385577943035 pbc="F F F"
C        0.25180579       0.40965745      -0.87995178
C       -0.16025220      -0.21331565       0.41070744
H        0.39446025       1.49459455      -0.77983047
H        1.18324122      -0.02934555      -1.26357589
H       -0.51616172       0.25830825      -1.65538259
C       -1.27639500      -0.85787143       0.62126919
H       -2.13293927      -1.37153953       0.84279764
O        0.72357235      -0.09504486       1.47930037
H        1.53266858       0.40455675       1.22466609
9
Properties=species:S:1:pos:R:3 energy=-724.8385565777588 pbc="F F F"
C        0.25180588       0.40965685      -0.87994976
C       -0.16024547      -0.21331392       0.41071296
H        0.39445663       1.49459461      -0.77983532
H        1.18323789      -0.02934605      -1.26358092
H       -0.51617401       0.25829679      -1.65536652
C       -1.27639124      -0.85786781       0.62126391
H       -2.13294038      -1.37153389       0.84277806
O        0.72357705      -0.09504415       1.47930581
H        1.53267365       0.40455757       1.22467178
9
Properties=species:S:1:pos:R:3 energy=-724.8385553573115 pbc="F F F"
C        0.25180597       0.40965626      -0.87994773
C       -0.16023873      -0.21331218       0.41071848
H        0.39445301       1.49459466      -0.77984018
H        1.18323456      -0.02934656      -1.26358596
H       -0.51618633       0.25828531      -1.65535042
C       -1.27638748      -0.85786418       0.62125862
H       -2.13294149      -1.37152824       0.84275846
O        0.72358176      -0.09504344       1.47931125
H        1.53267873       0.40455838       1.22467748
9
Properties=species:S:1:pos:R:3 energy=-724.8385541329441 pbc="F F F"
C        0.25180606       0.40965566      -0.87994571
C       -0.16023198      -0.21331044       0.41072401
H        0.39444939       1.49459471      -0.77984506
H        1.18323122      -0.02934707      -1.26359101
H       -0.51619866       0.25827380      -1.65533430
C       -1.27638371      -0.85786055       0.62125332
H       -2.13294260      -1.37152258       0.84273883
O        0.72358647      -0.09504273       1.47931671
H        1.53268381       0.40455920       1.22468320
9
Properties=species:S:1:pos:R:3 energy=-724.8385529046508 pbc="F F F"
C        0.25180615       0.40965506      -0.87994368
C       -0.16022521      -0.21330870       0.41072955
H        0.39444576       1.49459476      -0.77984993
H        1.18322788      -0.02934757      -1.26359606
H       -0.51621101       0.25826229      -1.65531815
C       -1.27637993      -0.85785690       0.62124800
H       -2.13294371      -1.37151692       0.84271918
O        0.72359119      -0.09504203       1.47932217
H        1.53268890       0.40456001       1.22468892
9
Properties=species:S:1:pos:R:3 energy=-724.8385516724146 pbc="F F F"
C        0.25180624       0.40965446      -0.87994164
C       -0.16021844      -0.21330696       0.41073509
H        0.39444212       1.49459482      -0.77985482
H        1.18322454      -0.02934808      -1.26360113
H       -0.51622338       0.25825075      -1.65530198
C       -1.27637615      -0.85785326       0.62124267
H       -2.13294482      -1.37151125       0.84269950
O        0.72359591      -0.09504132       1.47932765
H        1.53269399       0.40456083       1.22469466
9
Properties=species:S:1:pos:R:3 energy=-724.8385504362284 pbc="F F F"
C        0.25180633       0.40965386      -0.87993961
C       -0.16021166      -0.21330521       0.41074065
H        0.39443848       1.49459487      -0.77985972
H        1.18322119      -0.02934859      -1.26360620
H       -0.51623577       0.25823920      -1.65528578
C       -1.27637237      -0.85784960       0.62123733
H       -2.13294593      -1.37150557       0.84267980
O        0.72360064      -0.09504061       1.47933313
H        1.53269910       0.40456164       1.22470041
9
Properties=species:S:1:pos:R:3 energy=-724.8385491960719 pbc="F F F"
C        0.25180642       0.40965327      -0.87993757
C       -0.16020487      -0.21330346       0.41074620
H        0.39443483       1.49459493      -0.77986462
H        1.18321783      -0.02934910      -1.26361129
H       -0.51624817       0.25822762      -1.65526956
C       -1.27636858      -0.85784594       0.62123198
H       -2.13294704      -1.37149988       0.84266007
O        0.72360537      -0.09503990       1.47933862
H        1.53270421       0.40456246       1.22470616
9
Properties=species:S:1:pos:R:3 energy=-724.8385479519286 pbc="F F F"
C        0.25180652       0.40965267      -0.87993553
C       -0.16019807      -0.21330170       0.41075177
H        0.39443118       1.49459499      -0.77986953
H        1.18321448      -0.02934961      -1.26361638
H       -0.51626060       0.25821603      -1.65525331
C       -1.27636479      -0.85784227       0.62122661
H       -2.13294814      -1.37149418       0.84264032
O        0.72361010      -0.09503919       1.47934412
H        1.53270932       0.40456327       1.22471193
9
Properties=species:S:1:pos:R:3 energy=-724.8385467038042 pbc="F F F"
C        0.25180661       0.40965207      -0.87993349
C       -0.16019125      -0.21329995       0.41075734
H        0.39442752       1.49459504      -0.77987445
H        1.18321111      -0.02935012      -1.26362148
H       -0.51627304       0.25820443      -1.65523703
C       -1.27636099      -0.85783860       0.62122123
H       -2.13294925      -1.37148848       0.84262055
O        0.72361485      -0.09503849       1.47934962
H        1.53271444       0.40456409       1.22471771
9
Properties=species:S:1:pos:R:3 energy=-724.8385454516631 pbc="F F F"
C        0.25180671       0.40965147      -0.87993145
C       -0.16018443      -0.21329819       0.41076292
H        0.39442386       1.49459510      -0.77987938
H        1.18320774      -0.02935063      -1.26362659
H       -0.51628550       0.25819280      -1.65522073
C       -1.27635719      -0.85783492       0.62121584
H       -2.13295035      -1.37148276       0.84260075
O        0.72361959      -0.09503778       1.47935514
H        1.53271957       0.40456490       1.22472350
9
Properties=species:S:1:pos:R:3 energy=-724.838544195492 pbc="F F F"
C        0.25180680       0.40965087      -0.87992940
C       -0.16017760      -0.21329642       0.41076851
H        0.39442019       1.49459516      -0.77988432
H        1.18320437      -0.02935114      -1.26363170
H       -0.51629799       0.25818116      -1.65520441
C       -1.27635338      -0.85783123       0.62121043
H       -2.13295146      -1.37147704       0.84258093
O        0.72362435      -0.09503707       1.47936066
H        1.53272470       0.40456572       1.22472930
9
Properties=species:S:1:pos:R:3 energy=-724.8385429353058 pbc="F F F"
C        0.25180690       0.40965027      -0.87992735
C       -0.16017076      -0.21329466       0.41077411
H        0.39441652       1.49459522      -0.77988926
H        1.18320100      -0.02935165      -1.26363683
H       -0.51631049       0.25816950      -1.65518806
C       -1.27634957      -0.85782754       0.62120501
H       -2.13295256      -1.37147131       0.84256108
O        0.72362910      -0.09503636       1.47936620
H        1.53272985       0.40456653       1.22473511
9
Properties=species:S:1:pos:R:3 energy=-724.8385416710644 pbc="F F F"
C        0.25180700       0.40964967      -0.87992530
C       -0.16016390      -0.21329289       0.41077971
H        0.39441284       1.49459528      -0.77989422
H        1.18319761      -0.02935216      -1.26364197
H       -0.51632301       0.25815782      -1.65517168
C       -1.27634575      -0.85782384       0.62119958
H       -2.13295366      -1.37146558       0.84254121
O        0.72363387      -0.09503565       1.47937174
H        1.53273499       0.40456735       1.22474093
9
Properties=species:S:1:pos:R:3 energy=-724.8385404027657 pbc="F F F"
C        0.25180710       0.40964907      -0.87992325
C       -0.16015704      -0.21329112       0.41078532
H        0.39440916       1.49459534      -0.77989918
H        1.18319423      -0.02935267      -1.26364711
H       -0.51633555       0.25814612      -1.65515528
C       -1.27634193      -0.85782013       0.62119414
H       -2.13295476      -1.37145983       0.84252131
O        0.72363864      -0.09503495       1.47937729
H        1.53274015       0.40456816       1.22474676
9
Properties=species:S:1:pos:R:3 energy=-724.8385391303889 pbc="F F F"
C        0.25180721       0.40964847      -0.87992119
C       -0.16015017      -0.21328934       0.41079093
H        0.39440547       1.49459540      -0.77990415
H        1.18319084      -0.02935318      -1.26365226
H       -0.51634810       0.25813441      -1.65513885
C       -1.27633810      -0.85781642       0.62118868
H       -2.13295586      -1.37145408       0.84250139
O        0.72364341      -0.09503424       1.47938285
H        1.53274531       0.40456898       1.22475260
9
Properties=species:S:1:pos:R:3 energy=-724.8385378539223 pbc="F F F"
C        0.25180731       0.40964787      -0.87991913
C       -0.16014328      -0.21328756       0.41079655
H        0.39440178       1.49459546      -0.77990913
H        1.18318744      -0.02935370      -1.26365742
H       -0.51636068       0.25812267      -1.65512239
C       -1.27633427      -0.85781270       0.62118321
H       -2.13295696      -1.37144831       0.84248144
O        0.72364819      -0.09503353       1.47938842
H        1.53275048       0.40456979       1.22475846
9
Properties=species:S:1:pos:R:3 energy=-724.8385365733516 pbc="F F F"
C        0.25180741       0.40964727      -0.87991707
C       -0.16013639      -0.21328578       0.41080218
H        0.39439808       1.49459553      -0.77991412
H        1.18318404      -0.02935421      -1.26366259
H       -0.51637328       0.25811092      -1.65510591
C       -1.27633043      -0.85780898       0.62117772
H       -2.13295806      -1.37144254       0.84246147
O        0.72365297      -0.09503282       1.47939399
H        1.53275565       0.40457061       1.22476432
9
Properties=species:S:1:pos:R:3 energy=-724.838535288673 pbc="F F F"
C        0.25180752       0.40964667      -0.87991501
C       -0.16012948      -0.21328400       0.41080782
H        0.39439437       1.49459559      -0.77991911
H        1.18318064      -0.02935472      -1.26366777
H       -0.51638589       0.25809915      -1.65508940
C       -1.27632659      -0.85780524       0.62117223
H       -2.13295915      -1.37143676       0.84244148
O        0.72365776      -0.09503211       1.47939958
H        1.53276083       0.40457142       1.22477020
9
Properties=species:S:1:pos:R:3 energy=-724.8385339998547 pbc="F F F"
C        0.25180762       0.40964607      -0.87991294
C       -0.16012257      -0.21328221       0.41081347
H        0.39439067       1.49459566      -0.77992412
H        1.18317723      -0.02935524      -1.26367296
H       -0.51639852       0.25808736      -1.65507287
C       -1.27632275      -0.85780150       0.62116672
H       -2.13296025      -1.37143098       0.84242146
O        0.72366256      -0.09503141       1.47940517
H        1.53276602       0.40457224       1.22477608
9
Properties=species:S:1:pos:R:3 energy=-724.8385327069009 pbc="F F F"
C        0.25180773       0.40964547      -0.87991087
C       -0.16011564      -0.21328042       0.41081912
H        0.39438695       1.49459572      -0.77992913
H        1.18317381      -0.02935575      -1.26367816
H       -0.51641118       0.25807556      -1.65505631
C       -1.27631890      -0.85779776       0.62116119
H       -2.13296134      -1.37142518       0.84240141
O        0.72366736      -0.09503070       1.47941077
H        1.53277121       0.40457305       1.22478198
9
Properties=species:S:1:pos:R:3 energy=-724.8385314097942 pbc="F F F"
C        0.25180784       0.40964487      -0.87990880
C       -0.16010871      -0.21327862       0.41082478
H        0.39438323       1.49459579      -0.77993415
H        1.18317039      -0.02935626      -1.26368336
H       -0.51642385       0.25806374      -1.65503973
C       -1.27631504      -0.85779400       0.62115566
H       -2.13296244      -1.37141938       0.84238134
O        0.72367216      -0.09502999       1.47941638
H        1.53277641       0.40457387       1.22478789
9
Properties=species:S:1:pos:R:3 energy=-724.8385301085165 pbc="F F F"
C        0.25180795       0.40964427      -0.87990673
C       -0.16010176      -0.21327683       0.41083044
H        0.39437951       1.49459586      -0.77993918
H        1.18316697      -0.02935678      -1.26368858
H       -0.51643654       0.25805189      -1.65502312
C       -1.27631118      -0.85779025       0.62115011
H       -2.13296353      -1.37141356       0.84236125
O        0.72367698      -0.09502928       1.47942200
H        1.53278162       0.40457468       1.22479381
9
Properties=species:S:1:pos:R:3 energy=-724.8385288030488 pbc="F F F"
C        0.25180806       0.40964367      -0.87990465
C       -0.16009481      -0.21327503       0.41083612
H        0.39437578       1.49459592      -0.77994422
H        1.18316354      -0.02935729      -1.26369380
H       -0.51644925       0.25804003      -1.65500648
C       -1.27630732      -0.85778648       0.62114454
H       -2.13296462      -1.37140774       0.84234113
O        0.72368179      -0.09502858       1.47942763
H        1.53278683       0.40457550       1.22479974
9
Properties=species:S:1:pos:R:3 energy=-724.838527493379 pbc="F F F"
C        0.25180817       0.40964306      -0.87990257
C       -0.16008784      -0.21327322       0.41084180
H        0.39437204       1.49459599      -0.77994927
H        1.18316011      -0.02935781      -1.26369904
H       -0.51646198       0.25802815      -1.65498982
C       -1.27630345      -0.85778271       0.62113897
H       -2.13296571      -1.37140191       0.84232099
O        0.72368661      -0.09502787       1.47943327
H        1.53279205       0.40457631       1.22480568
9
Properties=species:S:1:pos:R:3 energy=-724.8385261795123 pbc="F F F"
C        0.25180829       0.40964246      -0.87990049
C       -0.16008086      -0.21327142       0.41084749
H        0.39436830       1.49459606      -0.77995433
H        1.18315667      -0.02935832      -1.26370428
H       -0.51647473       0.25801626      -1.65497313
C       -1.27629958      -0.85777893       0.62113338
H       -2.13296680      -1.37139608       0.84230082
O        0.72369144      -0.09502716       1.47943892
H        1.53279728       0.40457712       1.22481163
9
Properties=species:S:1:pos:R:3 energy=-724.8385248613993 pbc="F F F"
C        0.25180840       0.40964186      -0.87989841
C       -0.16007388      -0.21326961       0.41085318
H        0.39436455       1.49459613      -0.77995939
H        1.18315323      -0.02935884      -1.26370953
H       -0.51648750       0.25800434      -1.65495641
C       -1.27629570      -0.85777514       0.62112778
H       -2.13296789      -1.37139023       0.84228063
O        0.72369627      -0.09502645       1.47944457
H        1.53280251       0.40457794       1.22481759
9
Properties=species:S:1:pos:R:3 energy=-724.8385235390596 pbc="F F F"
C        0.25180852       0.40964126      -0.87989632
C       -0.16006688      -0.21326780       0.41085888
H        0.39436080       1.49459620      -0.77996447
H        1.18314978      -0.02935936      -1.26371479
H       -0.51650029       0.25799241      -1.65493967
C       -1.27629182      -0.85777135       0.62112216
H       -2.13296898      -1.37138437       0.84226041
O        0.72370111      -0.09502575       1.47945023
H        1.53280775       0.40457875       1.22482356
9
Properties=species:S:1:pos:R:3 energy=-724.8385222124595 pbc="F F F"
C        0.25180864       0.40964066      -0.87989424
C       -0.16005987      -0.21326598       0.41086459
H        0.39435704       1.49459628      -0.77996955
H        1.18314633      -0.02935987      -1.26372006
H       -0.51651309       0.25798046      -1.65492290
C       -1.27628793      -0.85776755       0.62111653
H       -2.13297007      -1.37137851       0.84224016
O        0.72370595      -0.09502504       1.47945591
H        1.53281300       0.40457957       1.22482955
9
Properties=species:S:1:pos:R:3 energy=-724.8385208815877 pbc="F F F"
C        0.25180875       0.40964005      -0.87989215
C       -0.16005285      -0.21326416       0.41087031
H        0.39435328       1.49459635      -0.77997464
H        1.18314287      -0.02936039      -1.26372533
H       -0.51652592       0.25796849      -1.65490611
C       -1.27628403      -0.85776374       0.62111089
H       -2.13297115      -1.37137264       0.84221989
O        0.72371080      -0.09502433       1.47946159
H        1.53281825       0.40458038       1.22483554
9
Properties=species:S:1:pos:R:3 energy=-724.8385195464273 pbc="F F F"
C        0.25180887       0.40963945      -0.87989005
C       -0.16004582      -0.21326234       0.41087604
H        0.39434951       1.49459642      -0.77997974
H        1.18313941      -0.02936091      -1.26373062
H       -0.51653877       0.25795650      -1.65488929
C       -1.27628014      -0.85775993       0.62110523
H       -2.13297224      -1.37136676       0.84219960
O        0.72371565      -0.09502362       1.47946728
H        1.53282351       0.40458120       1.22484155
9
Properties=species:S:1:pos:R:3 energy=-724.8385182069853 pbc="F F F"
C        0.25180899       0.40963885      -0.87988796
C       -0.16003878      -0.21326052       0.41088177
H        0.39434574       1.49459650      -0.77998484
H        1.18313595      -0.02936143      -1.26373592
H       -0.51655163       0.25794449      -1.65487244
C       -1.27627623      -0.85775611       0.62109956
H       -2.13297332      -1.37136087       0.84217928
O        0.72372051      -0.09502292       1.47947298
H        1.53282878       0.40458201       1.22484757
9
Properties=species:S:1:pos:R:3 energy=-724.8385168632157 pbc="F F F"
C        0.25180911       0.40963825      -0.87988586
C       -0.16003173      -0.21325869       0.41088751
H        0.39434196       1.49459657      -0.77998996
H        1.18313248      -0.02936195      -1.26374122
H       -0.51656452       0.25793246      -1.65485557
C       -1.27627233      -0.85775228       0.62109388
H       -2.13297441      -1.37135498       0.84215894
O        0.72372538      -0.09502221       1.47947869
H        1.53283405       0.40458282       1.22485360
9
Properties=species:S:1:pos:R:3 energy=-724.8385155151342 pbc="F F F"
C        0.25180924       0.40963764      -0.87988376
C       -0.16002467      -0.21325686       0.41089325
H        0.39433818       1.49459665      -0.77999509
H        1.18312900      -0.02936247      -1.26374654
H       -0.51657742       0.25792042      -1.65483866
C       -1.27626841      -0.85774845       0.62108818
H       -2.13297549      -1.37134907       0.84213857
O        0.72373025      -0.09502150       1.47948440
H        1.53283933       0.40458364       1.22485964
9
Properties=species:S:1:pos:R:3 energy=-724.8385141627058 pbc="F F F"
C        0.25180936       0.40963704      -0.87988166
C       -0.16001760      -0.21325502       0.41089901
H        0.39433439       1.49459672      -0.78000022
H        1.18312552      -0.02936299      -1.26375186
H       -0.51659035       0.25790836      -1.65482174
C       -1.27626450      -0.85774461       0.62108247
H       -2.13297657      -1.37134316       0.84211818