9
Properties=species:S:1:pos:R:3:momenta:R:3:forces:R:3 pbc="F F F"
C       -5.72446598       6.83799605      -4.27246093      -0.73365092       0.41611291      -0.48827602      -1.54085517      -0.38125867      -1.55019606
C       -6.50544379       7.64518695      -5.32592456       1.44023988      -2.26190372      -1.25775358      -0.00385954       0.02987005       0.02709875
H       -4.91084027       6.22058820      -4.59401244      -0.20297934       0.19394707      -0.10718710       0.00898207      -0.02420540      -0.01707958
H       -6.22489340       6.55179151      -3.36810626       0.18474633      -0.01881779       0.33559896      -0.00437892       0.00514194      -0.02062654
H       -5.34564282       8.10095365      -4.22944121       0.33545959       0.33163424      -0.29632868       2.97815285       1.59356436       2.77179156
C       -5.98814908       8.86742637      -5.07302842      -0.75965939      -0.35456882       0.21086041      -1.39396239      -1.21231481      -1.23337550
H       -5.92122665       9.88411733      -5.25541078       0.12389858       0.02205941      -0.21312135      -0.01318232      -0.00157547       0.00151677
O       -7.41597011       7.22844374      -6.22801892       0.76545562       0.55863962      -1.08017767      -0.00944159      -0.00834476       0.01160954
H       -7.54275158       6.24660822      -6.18373437      -0.14743624      -0.21153757       0.33608833      -0.02145499      -0.00087724       0.00926107
