2
Properties=species:S:1:pos:R:3 energy=-4089.989980235067 pbc="F F F"
O        1.05051800       0.09710200      -0.02042400
O        2.15570900       0.09710200      -0.02042400
