22
Properties=species:S:1:pos:R:3 energy=-15620.783072319142 pbc="F F F"
O        0.54018956       1.88372152       2.90724253
C        0.90705608       2.67364802       2.05336947
C        0.64865821       2.52175119       0.57874435
C        1.46899698       1.37441026      -0.01094460
C        0.90932486      -0.00000730       0.40016686
C        0.67582930      -0.94639359      -0.70637625
H        0.59557347      -1.99351715      -0.46015047
C        0.73332176      -0.54697464      -2.11375097
O        0.25195575       0.46435219      -2.57775371
C        1.50257539      -1.52188477      -2.96061156
H        1.48692458       3.62302376       2.27945926
H       -0.42845460       2.34801130       0.34883561
H        0.90069832       3.47840482       0.07896402
H        1.48242444       1.49573514      -1.11235972
H        2.52650449       1.45861705       0.30237278
H        1.60552715      -0.47822962       1.13419381
H       -0.03015472       0.13463626       0.99740589
H        1.72840556      -2.45710725      -2.42532907
H        0.94918414      -1.76481389      -3.88402408
H        2.45422126      -1.06687416      -3.27699429
O       -1.66762593      -2.51126064      -0.56546622
O       -1.61851407      -2.13299250      -1.60986563
