22
Properties=species:S:1:pos:R:3 energy=-1891.950682218132 pbc="F F F"
C        5.65052500      -4.49332000       0.95675000
C        6.72986500      -4.37290000      -0.12998100
C        6.62338600      -5.50204500      -1.10508200
C        5.96605200      -5.42754500      -2.26640800
C        4.63065700      -3.38849900       2.99094800
C        5.78313200      -3.39255000       2.01355300
H        4.64004400      -4.45373600       0.50010800
H        5.70627900      -5.48790600       1.44206200
H        6.64572900      -3.39365500      -0.64259500
H        7.73916100      -4.38003500       0.33131800
H        7.12167700      -6.42848300      -0.81804900
H        5.77756800      -8.21550500      -2.47213900
C        5.22662100      -4.29705100      -2.89182400
H        4.77388600      -2.74105500       3.87283200
H        6.74141500      -3.50086800       2.56072600
H        5.83716800      -2.39631300       1.52530400
H        4.42113900      -3.93895000      -2.23345200
H        4.76453200      -4.58759200      -3.85031800
H        5.89964300      -3.45231400      -3.10112500
O        3.61472800      -4.02741800       2.83807900
O        6.54777000      -7.62969300      -2.74289800
O        5.83626700      -6.48269200      -3.18834000
22
Properties=species:S:1:pos:R:3 energy=-1891.9320218591668 pbc="F F F"
C        5.66757834      -4.50399761       0.95452201
C        6.74059330      -4.37632134      -0.14179382
C        6.61838533      -5.51125997      -1.11130899
C        5.94398805      -5.43255061      -2.26701592
C        4.60638252      -3.37299159       2.96467911
C        5.78496600      -3.40123003       2.01969254
H        4.65082804      -4.48829526       0.49841939
H        5.75185763      -5.49737439       1.44532812
H        6.65107928      -3.39733682      -0.65378162
H        7.75313141      -4.38254528       0.31342379
H        7.10345981      -6.43843492      -0.80696919
H        5.80862543      -8.20027565      -2.46320682
C        5.22304184      -4.28933236      -2.88703196
H        4.75083175      -2.73111597       3.85274477
H        6.70792647      -3.53616346       2.60594837
H        5.88475707      -2.40121338       1.55407810
H        4.46352242      -3.89533959      -2.20984548
H        4.71561904      -4.57500754      -3.81790304
H        5.90683877      -3.47632922      -3.14098041
O        3.57972868      -3.98959432       2.78882459
O        6.56650466      -7.59896217      -2.73500116
O        5.79759818      -6.49445350      -3.17335339
22
Properties=species:S:1:pos:R:3 energy=-1891.8796975073567 pbc="F F F"
C        5.68514948      -4.51466531       0.95249282
C        6.75129464      -4.38002653      -0.15348044
C        6.61356131      -5.52066078      -1.11732300
C        5.92155763      -5.43745024      -2.26690589
C        4.58308828      -3.35748227       2.93748069
C        5.78616403      -3.41033564       2.02531612
H        4.66321688      -4.52359331       0.49779924
H        5.79795226      -5.50540486       1.44909035
H        6.65648988      -3.40129572      -0.66451813
H        7.76694284      -4.38549979       0.29548207
H        7.08481438      -6.44821780      -0.79587537
H        5.83966852      -8.18390558      -2.45487396
C        5.21936751      -4.28188354      -2.88204461
H        4.72799341      -2.72107565       3.83165174
H        6.67271289      -3.57193419       2.64865388
H        5.93035293      -2.40777927       1.58374546
H        4.50648572      -3.85327975      -2.18788517
H        4.66805721      -4.56121186      -3.78445531
H        5.91188080      -3.50056822      -3.17987196
O        3.54691463      -3.95135351       2.73819600
O        6.58574002      -7.56743069      -2.72647609
O        5.75783874      -6.50507050      -3.15672944
22
Properties=species:S:1:pos:R:3 energy=-1891.7979138683966 pbc="F F F"
C        5.70320827      -4.52531311       0.95067061
C        6.76195683      -4.38400610      -0.16502090
C        6.60890042      -5.53022592      -1.12311853
C        5.89879096      -5.44223226      -2.26608798
C        4.56077897      -3.34198688       2.90939744
C        5.78673385      -3.41986050       2.03042713
H        4.67717342      -4.55956623       0.49823688
H        5.84449470      -5.51200986       1.45333270
H        6.66195276      -3.40551921      -0.67480175
H        7.78058930      -4.38888786       0.27751435
H        7.06576941      -6.45783315      -0.78477910
H        5.87067579      -8.16643896      -2.44713069
C        5.21560057      -4.27470160      -2.87686852
H        4.70539128      -2.71094714       3.80958453
H        6.63585909      -3.60813584       2.68883266
H        5.97393338      -2.41598440       1.61423961
H        4.54995907      -3.81278601      -2.16756312
H        4.62188229      -4.54624804      -3.75003365
H        5.91480751      -3.52499445      -3.21777211
O        3.51629288      -3.91274192       2.68627605
O        6.60542914      -7.53514917      -2.71735408
O        5.71706411      -6.51455640      -3.13851252
22
Properties=species:S:1:pos:R:3 energy=-1891.6889895799113 pbc="F F F"
C        5.72172454      -4.53593105       0.94906356
C        6.77256768      -4.38825057      -0.17639523
C        6.60438914      -5.53993387      -1.12869008
C        5.87571825      -5.44688504      -2.26457231
C        4.53945929      -3.32652124       2.88047409
C        5.78668321      -3.42979831       2.03502899
H        4.69266059      -4.59615008       0.49972165
H        5.89141677      -5.51720187       1.45803916
H        6.66745986      -3.40999480      -0.68462970
H        7.79406480      -4.39269880       0.25954212
H        7.04635355      -6.46728245      -0.77369191
H        5.90162576      -8.14791994      -2.43996729
C        5.21174358      -4.26778361      -2.87151024
H        4.68304565      -2.70074355       3.78657477
H        6.59744991      -3.64472412       2.72647486
H        6.01547624      -2.42580252       1.64549409
H        4.59387262      -3.77387387      -2.14887139
H        4.57713004      -4.53015920      -3.71469691
H        5.91565730      -3.54957137      -3.25465333
O        3.48787043      -3.87380591       2.63314754
O        6.62552504      -7.50216821      -2.70766643
O        5.67534973      -6.52292462      -3.11874700
22
Properties=species:S:1:pos:R:3 energy=-1891.5532946681371 pbc="F F F"
C        5.74066815      -4.54650916       0.94767985
C        6.78311500      -4.39275049      -0.18758347
C        6.60001395      -5.54976308      -1.13403216
C        5.85236972      -5.45139697      -2.26236896
C        4.51913393      -3.31110121       2.85075535
C        5.78601987      -3.44014274       2.03912510
H        4.70964132      -4.63328092       0.50224289
H        5.93865029      -5.52099334       1.46319373
H        6.67300314      -3.41471002      -0.69399919
H        7.80736332      -4.39692194       0.24158691
H        7.02659550      -6.47656721      -0.76262535
H        5.93249696      -8.12839269      -2.43337404
C        5.20779912      -4.26112664      -2.86597635
H        4.66097682      -2.69047798       3.76265406
H        6.55757017      -3.68165468       2.76157063
H        6.05495930      -2.43720738       1.67744244
H        4.63815655      -3.73655884      -2.13180202
H        4.53383623      -4.51298842      -3.67850395
H        5.91446858      -3.57426244      -3.29048808
O        3.46165429      -3.83459182       2.57889330
O        6.64598077      -7.46853843      -2.69744446
O        5.63277102      -6.53018859      -3.09747723
22
Properties=species:S:1:pos:R:3 energy=-1891.3894415967643 pbc="F F F"
C        5.76000892      -4.55703747       0.94652766
C        6.79358660      -4.39749636      -0.19856563
C        6.59576131      -5.55969205      -1.13913929
C        5.82877557      -5.45575642      -2.25948803
C        4.49980758      -3.29574261       2.82028593
C        5.78475159      -3.45088747       2.04271886
H        4.72807852      -4.67089483       0.50578993
H        5.98612708      -5.52339673       1.46878042
H        6.67857454      -3.41965238      -0.70290742
H        7.82047887      -4.40154660       0.22367022
H        7.00652393      -6.48568891      -0.75159095
H        5.96326793      -8.10790139      -2.42734120
C        5.20376974      -4.25472776      -2.86027340
H        4.63920510      -2.68016354       3.73785402
H        6.51630469      -3.71888322       2.79411010
H        6.09236036      -2.45017272       1.71001820
H        4.68274103      -3.70085644      -2.11634708
H        4.49203662      -4.49477881      -3.64151362
H        5.91127976      -3.59903112      -3.32524880
O        3.43765147      -3.79514601       2.52359613
O        6.66674938      -7.43431043      -2.68671946
O        5.58940341      -6.53636171      -3.07474759
22
Properties=species:S:1:pos:R:3 energy=-1891.1947662206928 pbc="F F F"
C        5.77971671      -4.56750602       0.94561519
C        6.80397029      -4.40247872      -0.20932176
C        6.59161773      -5.56969925      -1.14400596
C        5.80496603      -5.45995177      -2.25593962
C        4.48148494      -3.28046129       2.78911057
C        5.78288613      -3.46202619       2.04581367
H        4.74793512      -4.70892787       0.51035211
H        6.03377894      -5.52442451       1.47478321
H        6.68416601      -3.42480941      -0.71135162
H        7.83340546      -4.40656211       0.20581357
H        6.98616752      -6.49464907      -0.74060025
H        5.99391717      -8.08649018      -2.42185906
C        5.19965800      -4.24858403      -2.85440796
H        4.61775077      -2.66981332       3.71220628
H        6.47373832      -3.75636541       2.82408343
H        6.12765723      -2.46467228       1.74315492
H        4.72755621      -3.66678218      -2.10249861
H        4.45176698      -4.47557348      -3.60378478
H        5.90612924      -3.62384088      -3.35890798
O        3.41586899      -3.75551483       2.46733885
O        6.68778390      -7.39953482      -2.67552274
O        5.54532233      -6.54145741      -3.05060245
22
Properties=species:S:1:pos:R:3 energy=-1890.9660884927143 pbc="F F F"
C        5.79976135      -4.57790482       0.94495060
C        6.81425388      -4.40768809      -0.21983188
C        6.58756966      -5.57976314      -1.14862668
C        5.78097131      -5.46397138      -2.25173382
C        4.46417069      -3.26527308       2.75727396
C        5.78043124      -3.47355257       2.04841294
H        4.76917403      -4.74731611       0.51591877
H        6.08153769      -5.52408914       1.48118612
H        6.68976949      -3.43016861      -0.71932899
H        7.84613707      -4.41195777       0.18803845
H        6.96555495      -6.50344917      -0.72966479
H        6.02442323      -8.06420324      -2.41691788
C        5.19546648      -4.24269252      -2.84838659
H        4.59663413      -2.65944042       3.68574246
H        6.42995587      -3.79405693       2.85148074
H        6.16082772      -2.48067981       1.77678612
H        4.77253226      -3.63435158      -2.09024868
H        4.41306308      -4.45541551      -3.56537628
H        5.89905543      -3.64865516      -3.39143806
O        3.39631385      -3.71574464       2.41020428
O        6.70903737      -7.36426221      -2.66388561
O        5.50060321      -6.54548910      -3.02508617
22
Properties=species:S:1:pos:R:3 energy=-1890.7007210987313 pbc="F F F"
C        5.82011268      -4.58822391       0.94454208
C        6.82442518      -4.41311501      -0.23007603
C        6.58360359      -5.58986222      -1.15299597
C        5.75682162      -5.46780365      -2.24688072
C        4.44786953      -3.25019383       2.72482083
C        5.77739470      -3.48546029       2.05052008
H        4.79175819      -4.78599561       0.52247924
H        6.12933516      -5.52240308       1.48797313
H        6.69537694      -3.43571751      -0.72683676
H        7.85866772      -4.41772292       0.17036638
H        6.94471490      -6.51209071      -0.71879612
H        6.05476463      -8.04108473      -2.41250795
C        5.19119774      -4.23705029      -2.84221586
H        4.57587549      -2.64905796       3.65849417
H        6.38504218      -3.83191345       2.87629220
H        6.19184961      -2.49816905       1.81084535
H        4.81759936      -3.60358014      -2.07958933
H        4.37596068      -4.43434801      -3.52634697
H        5.89009674      -3.67343744      -3.42281152
O        3.37899306      -3.67588179       2.35227523
O        6.73046284      -7.32854320      -2.65183935
O        5.45532148      -6.54847020      -2.99824311
22
Properties=species:S:1:pos:R:3 energy=-1890.3977429618867 pbc="F F F"
C        5.84074055      -4.59845332       0.94439781
C        6.83447200      -4.41875000      -0.24003424
C        6.57970601      -5.59997495      -1.15710832
C        5.73254719      -5.47143694      -2.24139043
C        4.43258615      -3.23523937       2.69179590
C        5.77378425      -3.49774303       2.05213848
H        4.81565051      -4.82490245       0.53002285
H        6.17710315      -5.51937880       1.49512824
H        6.70098031      -3.44144363      -0.73387212
H        7.87099140      -4.42384687       0.15281888
H        6.92367604      -6.52057519      -0.70800578
H        6.08491988      -8.01717882      -2.40861952
C        5.18685433      -4.23165442      -2.83590232
H        4.55549513      -2.63867904       3.63049303
H        6.33908207      -3.86989067       2.89850793
H        6.22070073      -2.51711374       1.84526615
H        4.86268766      -3.57448337      -2.07051261
H        4.34049554      -4.41241407      -3.48675570
H        5.87929157      -3.69815117      -3.45300080
O        3.36391364      -3.63597263       2.29363452
O        6.75201334      -7.29242841      -2.63941529
O        5.40955257      -6.55041412      -2.97011765
22
Properties=species:S:1:pos:R:3 energy=-1890.0597364276139 pbc="F F F"
C        5.86161479      -4.60858308       0.94452597
C        6.84438214      -4.42458358      -0.24968655
C        6.57586338      -5.61007982      -1.16095825
C        5.70817821      -5.47485962      -2.23527304
C        4.41832525      -3.22042553       2.65824388
C        5.76960765      -3.51039449       2.05327156
H        4.84081391      -4.86397268       0.53853896
H        6.22477349      -5.51502875       1.50263546
H        6.70657153      -3.44733448      -0.74043230
H        7.88310211      -4.43031895       0.13541743
H        6.90246706      -6.52890411      -0.69730530
H        6.11486753      -7.99252967      -2.40524289
C        5.18243883      -4.22650197      -2.82945255
H        4.53551335      -2.62831675       3.60177066
H        6.29216037      -3.90794424       2.91811809
H        6.24735886      -2.53748763       1.87998206
H        4.90772733      -3.54707680      -2.06301059
H        4.30670344      -4.38965681      -3.44666132
H        5.86667834      -3.72275981      -3.48197837
O        3.35108259      -3.59606351       2.23436496
O        6.77364192      -7.25596844      -2.62664472
O        5.36337190      -6.55133428      -2.94075415
22
Properties=species:S:1:pos:R:3 energy=-1889.695548421723 pbc="F F F"
C        5.88270525      -4.61860322       0.94493475
C        6.85414342      -4.43060629      -0.25901297
C        6.57206219      -5.62015528      -1.16454025
C        5.68374492      -5.47806009      -2.22853865
C        4.40509152      -3.20576817       2.62420949
C        5.76487267      -3.52340832       2.05392272
H        4.86721132      -4.90314239       0.54801688
H        6.27227798      -5.50936539       1.51047878
H        6.71214257      -3.45337758      -0.74651450
H        7.89499385      -4.43712847       0.11818357
H        6.88111663      -6.53707895      -0.68670622
H        6.14458610      -7.96718144      -2.40236832
C        5.17795380      -4.22159001      -2.82287310
H        4.51595045      -2.61798420       3.57235868
H        6.24436192      -3.94602987       2.93511281
H        6.27180182      -2.55926447       1.91492661
H        4.95264853      -3.52137593      -2.05707532
H        4.27462014      -4.36611931      -3.40612270
H        5.85229545      -3.74722683      -3.50971669
O        3.34050693      -3.55620080       2.17454936
O        6.79530162      -7.21921390      -2.61355894
O        5.31685491      -6.55124411      -2.91019697
22
Properties=species:S:1:pos:R:3 energy=-1889.3250266912355 pbc="F F F"
C        5.90398177      -4.62850377       0.94563233
C        6.86374365      -4.43680864      -0.26799355
C        6.56828892      -5.63017983      -1.16784885
C        5.65927752      -5.48102671      -2.22119734
C        4.39288964      -3.19128311       2.58973744
C        5.75958705      -3.53677823       2.05409536
H        4.89480565      -4.94234762       0.55844597
H        6.31954845      -5.50240120       1.51864221
H        6.71768537      -3.45956045      -0.75211595
H        7.90666062      -4.44426476       0.10113880
H        6.85965343      -6.54510122      -0.67622010
H        6.17405410      -7.94117830      -2.39998608
C        5.17340181      -4.21691561      -2.81617054
H        4.49682674      -2.60769449       3.54228870
H        6.19577153      -3.98410321       2.94948224
H        6.29400740      -2.58241799       1.95003335
H        4.99738144      -3.49739627      -2.05269884
H        4.24428141      -4.34184468      -3.36519868
H        5.83618130      -3.77151567      -3.53618823
O        3.33219367      -3.51643083       2.11427054
O        6.81694548      -7.18221540      -2.60018927
O        5.27007703      -6.55015701      -2.87849049
22
Properties=species:S:1:pos:R:3 energy=-1888.9871630995044 pbc="F F F"
C        5.92541420      -4.63827476       0.94662688
C        6.87317064      -4.44318118      -0.27660831
C        6.56453004      -5.64013194      -1.17087854
C        5.63480622      -5.48374786      -2.21325922
C        4.38172431      -3.17698619       2.55487246
C        5.75375857      -3.55049788       2.05379288
H        4.92355984      -4.98152445       0.56981554
H        6.36651671      -5.49414862       1.52710973
H        6.72319187      -3.46587060      -0.75723385
H        7.91809643      -4.45171715       0.08430462
H        6.83810615      -6.55297242      -0.66585846
H        6.20325008      -7.91456441      -2.39808646
C        5.16878541      -4.21247583      -2.80935143
H        4.47816249      -2.59746073       3.51159235
H        6.14647405      -4.02211995       2.96121653
H        6.31395342      -2.60692194       1.98523582
H        5.04185622      -3.47515335      -2.04987322
H        4.21572301      -4.31687602      -3.32394812
H        5.81837431      -3.79558981      -3.56136544
O        3.32614981      -3.47679997       2.05361131
O        6.83852654      -7.14502355      -2.58656700
O        5.22311368      -6.54808640      -2.84567907
22
Properties=species:S:1:pos:R:3 energy=-1888.7586959089128 pbc="F F F"
C        5.94697236      -4.64790622       0.94792659
C        6.88241220      -4.44971442      -0.28483729
C        6.56077204      -5.64999008      -1.17362383
C        5.61036125      -5.48621191      -2.20473438
C        4.37160023      -3.16289326       2.51965925
C        5.74739497      -3.56456096       2.05301869
H        4.95343679      -5.02060895       0.58211495
H        6.41311458      -5.48462013       1.53586536
H        6.72865403      -3.47229556      -0.76186542
H        7.92929527      -4.45947494       0.06770254
H        6.81650345      -6.56069404      -0.65563285
H        6.23215255      -7.88738394      -2.39665972
C        5.16410718      -4.20826773      -2.80242234
H        4.45997802      -2.58729602       3.48030125
H        6.09655429      -4.06003578       2.97030581
H        6.33161766      -2.63275007       2.02046755
H        5.08600303      -3.45466266      -2.04859051
H        4.18898071      -4.29125642      -3.28242987
H        5.79891288      -3.81941270      -3.58522078
O        3.32238237      -3.43735456       1.99265449
O        6.85999784      -7.10768896      -2.57272343
O        5.17604029      -6.54504570      -2.81180708
22
Properties=species:S:1:pos:R:3 energy=-1888.798395636885 pbc="F F F"
C        5.96862611      -4.65738818       0.94953964
C        6.89145613      -4.45639889      -0.29266051
C        6.55700138      -5.65973272      -1.17607923
C        5.58597282      -5.48840724      -2.19563292
C        4.36252208      -3.14902015       2.48414254
C        5.74050402      -3.57896115       2.05177620
H        4.98439944      -5.05953719       0.59533353
H        6.45927387      -5.47382818       1.54489308
H        6.73406379      -3.47882284      -0.76600786
H        7.94025115      -4.46752747       0.05135408
H        6.79487402      -6.56826757      -0.64555481
H        6.26074004      -7.85968105      -2.39569614
C        5.15936967      -4.20428840      -2.79538982
H        4.44229362      -2.57721346       3.44844701
H        6.04609709      -4.09780636       2.97674023
H        6.34697794      -2.65987611       2.05566209
H        5.12975204      -3.43593972      -2.04884276
H        4.16409028      -4.26502899      -3.24070278
H        5.77783542      -3.84294780      -3.60772672
O        3.32089836      -3.39814097       1.93148290
O        6.88131243      -7.07026222      -2.55868988
O        5.12893230      -6.54104833      -2.77691888
22
Properties=species:S:1:pos:R:3 energy=-1889.1677615826861 pbc="F F F"
C        5.99034528      -4.66671067       0.95147422
C        6.90029025      -4.46322512      -0.30005802
C        6.55320456      -5.66933836      -1.17823925
C        5.56167114      -5.49032223      -2.18596493
C        4.35449457      -3.13538269       2.44836705
C        5.73309348      -3.59369212       2.05006881
H        5.01641071      -5.09824523       0.60946061
H        6.50492640      -5.46178524       1.55417690
H        6.73941310      -3.48543996      -0.76965840
H        7.95095805      -4.47586405       0.03528074
H        6.77324654      -6.57569452      -0.63563587
H        6.28899108      -7.83149991      -2.39518600
C        5.15457545      -4.20053489      -2.78826044
H        4.42512958      -2.56722616       3.41606125
H        5.99518727      -4.13538738       2.98050994
H        6.36001206      -2.68827382       2.09075298
H        5.17303342      -3.41900005      -2.05062202
H        4.14108748      -4.23823682      -3.19882570
H        5.75518033      -3.86615858      -3.62885572
O        3.32170478      -3.35920553       1.87017934
O        6.90242334      -7.03279396      -2.54449764
O        5.08186513      -6.53610770      -2.74105884
22
Properties=species:S:1:pos:R:3 energy=-1889.6236797798176 pbc="F F F"
C        6.01209972      -4.67586372       0.95373850
C        6.90890237      -4.47018364      -0.30700984
C        6.54936805      -5.67878545      -1.18009839
C        5.53748642      -5.49194525      -2.17574051
C        4.34752237      -3.12199673       2.41237748
C        5.72517110      -3.60874757       2.04789992
H        5.04943351      -5.13666913       0.62448553
H        6.55000398      -5.44850377       1.56370081
H        6.74469392      -3.49213444      -0.77281425
H        7.96141000      -4.48447401       0.01950404
H        6.75164969      -6.58297638      -0.62588759
H        6.31688420      -7.80288468      -2.39511956
C        5.14972709      -4.19700428      -2.78104077
H        4.40850621      -2.55734721       3.38317560
H        5.94390967      -4.17273451       2.98160508
H        6.37069781      -2.71791693       2.12567374
H        5.21577733      -3.40385916      -2.05392036
H        4.12000808      -4.21092302      -3.15685749
H        5.73098603      -3.88900848      -3.64858023
O        3.32480866      -3.32059462       1.80882663
O        6.92328361      -6.99533478      -2.53017801
O        5.03491421      -6.53023723      -2.70427133
22
Properties=species:S:1:pos:R:3 energy=-1890.070299855319 pbc="F F F"
C        6.03385926      -4.68483736       0.95634066
C        6.91728029      -4.47726497      -0.31349600
C        6.54547833      -5.68805247      -1.18165115
C        5.51344889      -5.49326469      -2.16496976
C        4.34161019      -3.10887811       2.37621856
C        5.71674465      -3.62412117       2.04527294
H        5.08343076      -5.17474497       0.64039763
H        6.59443844      -5.43399623       1.57344882
H        6.74989818      -3.49889380      -0.77547261
H        7.97160097      -4.49334667       0.00404547
H        6.73011214      -6.59011465      -0.61632150
H        6.34439791      -7.77387952      -2.39548710
C        5.14482715      -4.19369362      -2.77373737
H        4.39244379      -2.54758973       3.34982166
H        5.89234910      -4.20980344       2.98001578
H        6.37901301      -2.74877919       2.16035793
H        5.25791393      -3.39053256      -2.05872981
H        4.10088784      -4.18313068      -3.11485700
H        5.70529092      -3.91146098      -3.66687272
O        3.33021699      -3.28235457       1.74750759
O        6.94384630      -6.95793529      -2.51576231
O        4.98815496      -6.52345034      -2.66660071
22
Properties=species:S:1:pos:R:3 energy=-1890.4868907862365 pbc="F F F"
C        6.05559375      -4.69362162       0.95928889
C        6.92541183      -4.48445964      -0.31949654
C        6.54152187      -5.69711791      -1.18289206
C        5.48958875      -5.49426890      -2.15366276
C        4.33676272      -3.09604266       2.33993501
C        5.70782187      -3.63980659       2.04219127
H        5.11836540      -5.21240881       0.65718624
H        6.63816158      -5.41827509       1.58340492
H        6.75501784      -3.50570554      -0.77763071
H        7.98152499      -4.50247134      -0.01107344
H        6.70866257      -6.59711082      -0.60694914
H        6.37151075      -7.74452861      -2.39627890
C        5.13987819      -4.19059999      -2.76635680
H        4.37696263      -2.53796681       3.31603106
H        5.84059041      -4.24654984       2.97573220
H        6.38493546      -2.78083435       2.19473909
H        5.29937340      -3.37903576      -2.06504245
H        4.08376253      -4.15490291      -3.07288309
H        5.67813340      -3.93347953      -3.68370565
O        3.33793679      -3.24453175       1.68630503
O        6.96406442      -6.92064609      -2.50128183
O        4.94166283      -6.51576044      -2.62809135
22
Properties=species:S:1:pos:R:3 energy=-1890.8671120069198 pbc="F F F"
C        6.07727303      -4.70220653       0.96259137
C        6.93328480      -4.49175818      -0.32499148
C        6.53748516      -5.70596024      -1.18381561
C        5.46593623      -5.49494628      -2.14182962
C        4.33298464      -3.08350622       2.30357153
C        5.69841054      -3.65579753       2.03865831
H        5.15420034      -5.24959671       0.67484070
H        6.68110522      -5.40135279       1.59355311
H        6.76004484      -3.51255720      -0.77928574
H        7.99117603      -4.51183736      -0.02583119
H        6.68732966      -6.60396640      -0.59778205
H        6.39820125      -7.71487609      -2.39748523
C        5.13488279      -4.18772046      -2.75890562
H        4.36208303      -2.52849155       3.28183542
H        5.78871842      -4.28292939       2.96874447
H        6.38844296      -2.81405614       2.22875074
H        5.34008589      -3.36938428      -2.07285032
H        4.06866792      -4.12628280      -3.03099460
H        5.64955189      -3.95502760      -3.69905148
O        3.34797508      -3.20717250       1.62530177
O        6.98389104      -6.88351780      -2.48676788
O        4.89551324      -6.50718095      -2.58878762
22
Properties=species:S:1:pos:R:3 energy=-1891.2098627199339 pbc="F F F"
C        6.09886694      -4.71058212       0.96625628
C        6.94088700      -4.49915111      -0.32996086
C        6.53335468      -5.71455792      -1.18441630
C        5.44252153      -5.49528520      -2.12948044
C        4.33028066      -3.07128463       2.26717285
C        5.68851840      -3.67208766       2.03467748
H        5.19089850      -5.28624476       0.69335035
H        6.72320119      -5.38324182       1.60387739
H        6.76497113      -3.51943629      -0.78043494
H        8.00054811      -4.52143403      -0.04020627
H        6.66614210      -6.61068287      -0.58883177
H        6.42444792      -7.68496615      -2.39909636
C        5.12984349      -4.18505208      -2.75139040
H        4.34782527      -2.51917706       3.24726635
H        5.73681796      -4.31889776       2.95904274
H        6.38951331      -2.84841832       2.26232644
H        5.37998158      -3.36159362      -2.08214547
H        4.05563978      -4.09731346      -2.98925040
H        5.61958479      -3.97606863      -3.71288267
O        3.36033885      -3.17032318       1.56458062
O        7.00327919      -6.84660102      -2.47225176
O        4.84978161      -6.49772529      -2.54873388
22
Properties=species:S:1:pos:R:3 energy=-1891.5166536197376 pbc="F F F"
C        6.12034533      -4.71873842       0.97029181
C        6.94820625      -4.50662897      -0.33438471
C        6.52911690      -5.72288945      -1.18468866
C        5.41937487      -5.49527403      -2.11662529
C        4.32865546      -3.05939372       2.23078369
C        5.67815322      -3.68867066       2.03025217
H        5.22842281      -5.32228901       0.71270452
H        6.76438129      -5.36395462       1.61436176
H        6.76978867      -3.52633032      -0.78107551
H        8.00963523      -4.53125069      -0.05417718
H        6.64512855      -6.61726173      -0.58010984
H        6.45022930      -7.65484294      -2.40110258
C        5.12476287      -4.18259194      -2.74381770
H        4.33420967      -2.51003645       3.21235548
H        5.68497385      -4.35441065       2.94661716
H        6.38812431      -2.88389462       2.29539972
H        5.41899063      -3.35567930      -2.09291996