22
Properties=species:S:1:pos:R:3:momenta:R:3:forces:R:3 pbc="F F F"
C        5.08535779      -8.53367608      -2.55105683      -0.84482450       1.88274688       1.44506235       0.01187961       0.06249910       0.02735487
C        5.70153485      -7.77464968      -3.72405992      -0.28181602       0.70554073      -0.01029710      -0.03230275       0.05413759      -0.00983052
C        5.24319275      -8.13403556      -5.00751448      -2.49256486       1.32066146      -0.00554351       0.28008700       0.42875975      -0.54177469
C        5.59884355      -7.24661780      -6.28263140      -0.73665265      -1.02091547       0.67609936       0.11636148      -0.05516541       0.17705062
C        3.07941770      -7.58122117      -1.28898091       1.10214306      -0.47131415       0.39077907      -0.02810516       0.03970188       0.11446264
C        3.56132131      -8.40479717      -2.47147304       1.39975600       1.01956691      -0.83741824      -0.04285985       0.04187034      -0.02215428
H        5.34700470      -9.60870545      -2.61446350       0.46325588       0.31340454      -0.30326741       0.15210947       0.00337277       0.13125027
H        5.52949759      -8.11228197      -1.62153788       0.06927856      -0.21355269      -0.49370212       0.09553752      -0.16720952       0.16625658
H        5.67322604      -6.65118903      -3.54615131       0.44448326       0.15277546      -0.13593256       0.10652363       0.02537256       0.03086481
H        6.86606887      -7.80954550      -3.71672909      -0.41546005       0.58632031      -0.33189674      -0.08367022       0.01214240      -0.06264757
H        4.63890649      -9.03904754      -5.16008466      -0.45283301       0.16147481       0.16128248       0.06644251       0.06590140      -0.08900274
H        9.16876254      -6.70057100      -7.46552110      -0.26274036      -0.11325469      -0.24250981      -0.02156391      -0.02329005       0.06565645
C        5.10977990      -5.86033201      -6.17351123       0.18982570      -1.46525384       2.13720431       0.00059118       0.09131690       0.03251397
H        2.13105694      -7.92617565      -0.85930548       0.22258015      -0.00273706       0.63498141      -0.11968265      -0.02255046       0.08535854
H        3.12410971      -7.91711432      -3.36031890       0.21788309      -0.03443011      -0.27094832       0.00019354       0.00745504      -0.21755678
H        3.10473375      -9.41259694      -2.44792154       0.15729599      -0.53663522       0.15700030      -0.03709401      -0.07557904       0.04640465
H        5.99808189      -5.17145420      -6.14413105       0.16721550       0.27712813       0.29419770       0.11147824      -0.09617580      -0.04517334
H        4.48162019      -5.61113377      -5.32228638      -0.16764758       0.35266889      -0.03344406      -0.06533828      -0.00855841       0.08968304
H        4.57931616      -5.54804801      -7.09007495       0.01898078       0.09354096       0.03448866       0.01547173      -0.00632109      -0.07572322
O        3.66349464      -6.61046811      -0.87561589       0.36907373       0.73515814      -0.84951339       0.13729962      -0.01564144      -0.04076349
O        8.60991895      -6.79900363      -6.79692632       1.08693684       0.06780851       1.09970295      -0.80004318      -0.08336277       0.42019455
O        6.18271677      -7.81195411      -7.13978569      -0.78645834      -3.09069238       0.08596508       0.13668448      -0.27867574      -0.28242438
