3
Properties=species:S:1:pos:R:3 energy=-2077.5823496302232 pbc="F F F"
O        0.92526900       0.04441400       0.06109700
H        0.63855100       0.85480800      -0.44313000
H        1.92071000       0.08502300       0.03583000
