 Entering Gaussian System, Link 0=g09
 Initial command:
 /apps/applications/gaussian/G09.D01/2/default/g09/l1.exe "/nobackup/chmrsh/Scratch/Gau-43108.inp" -scrdir="/nobackup/chmrsh/Scratch/"
 Entering Link 1 = /apps/applications/gaussian/G09.D01/2/default/g09/l1.exe PID=     43109.
  
 Copyright (c) 1988,1990,1992,1993,1995,1998,2003,2009,2013,
            Gaussian, Inc.  All Rights Reserved.
  
 This is part of the Gaussian(R) 09 program.  It is based on
 the Gaussian(R) 03 system (copyright 2003, Gaussian, Inc.),
 the Gaussian(R) 98 system (copyright 1998, Gaussian, Inc.),
 the Gaussian(R) 94 system (copyright 1995, Gaussian, Inc.),
 the Gaussian 92(TM) system (copyright 1992, Gaussian, Inc.),
 the Gaussian 90(TM) system (copyright 1990, Gaussian, Inc.),
 the Gaussian 88(TM) system (copyright 1988, Gaussian, Inc.),
 the Gaussian 86(TM) system (copyright 1986, Carnegie Mellon
 University), and the Gaussian 82(TM) system (copyright 1983,
 Carnegie Mellon University). Gaussian is a federally registered
 trademark of Gaussian, Inc.
  
 This software contains proprietary and confidential information,
 including trade secrets, belonging to Gaussian, Inc.
  
 This software is provided under written license and may be
 used, copied, transmitted, or stored only in accord with that
 written license.
  
 The following legend is applicable only to US Government
 contracts under FAR:
  
                    RESTRICTED RIGHTS LEGEND
  
 Use, reproduction and disclosure by the US Government is
 subject to restrictions as set forth in subparagraphs (a)
 and (c) of the Commercial Computer Software - Restricted
 Rights clause in FAR 52.227-19.
  
 Gaussian, Inc.
 340 Quinnipiac St., Bldg. 40, Wallingford CT 06492
  
  
 ---------------------------------------------------------------
 Warning -- This program may not be used in any manner that
 competes with the business of Gaussian, Inc. or will provide
 assistance to any competitor of Gaussian, Inc.  The licensee
 of this program is prohibited from giving any competitor of
 Gaussian, Inc. access to this program.  By using this program,
 the user acknowledges that Gaussian, Inc. is engaged in the
 business of creating and licensing software in the field of
 computational chemistry and represents and warrants to the
 licensee that it is not a competitor of Gaussian, Inc. and that
 it will not use this program in any manner prohibited above.
 ---------------------------------------------------------------
  

 Cite this work as:
 Gaussian 09, Revision D.01,
 M. J. Frisch, G. W. Trucks, H. B. Schlegel, G. E. Scuseria, 
 M. A. Robb, J. R. Cheeseman, G. Scalmani, V. Barone, B. Mennucci, 
 G. A. Petersson, H. Nakatsuji, M. Caricato, X. Li, H. P. Hratchian, 
 A. F. Izmaylov, J. Bloino, G. Zheng, J. L. Sonnenberg, M. Hada, 
 M. Ehara, K. Toyota, R. Fukuda, J. Hasegawa, M. Ishida, T. Nakajima, 
 Y. Honda, O. Kitao, H. Nakai, T. Vreven, J. A. Montgomery, Jr., 
 J. E. Peralta, F. Ogliaro, M. Bearpark, J. J. Heyd, E. Brothers, 
 K. N. Kudin, V. N. Staroverov, T. Keith, R. Kobayashi, J. Normand, 
 K. Raghavachari, A. Rendell, J. C. Burant, S. S. Iyengar, J. Tomasi, 
 M. Cossi, N. Rega, J. M. Millam, M. Klene, J. E. Knox, J. B. Cross, 
 V. Bakken, C. Adamo, J. Jaramillo, R. Gomperts, R. E. Stratmann, 
 O. Yazyev, A. J. Austin, R. Cammi, C. Pomelli, J. W. Ochterski, 
 R. L. Martin, K. Morokuma, V. G. Zakrzewski, G. A. Voth, 
 P. Salvador, J. J. Dannenberg, S. Dapprich, A. D. Daniels, 
 O. Farkas, J. B. Foresman, J. V. Ortiz, J. Cioslowski, 
 and D. J. Fox, Gaussian, Inc., Wallingford CT, 2013.
 
 ******************************************
 Gaussian 09:  ES64L-G09RevD.01 24-Apr-2013
                 5-Jan-2021 
 ******************************************
 ----------------------------------------------------------------------
 #P b3lyp/3-21G scf=qc opt(calcall, ts, noeigentest, cartesian,maxcycle
 =100) NoSymm
 ----------------------------------------------------------------------
 1/5=1,6=100,10=4,11=1,14=-1,18=10,26=3,38=1/1,3;
 2/12=2,15=1,17=6,18=5,29=2,40=1/2;
 3/5=5,11=2,16=1,25=1,30=1,71=2,74=-5,140=1/1,2,3;
 4//1;
 5/5=2,8=3,38=5/8;
 8/6=4,10=90,11=11/1;
 11/6=1,8=1,9=11,15=111,16=1,31=1/1,2,10;
 10/6=1,31=1/2;
 6/7=2,8=2,9=2,10=2,18=1,28=1/1;
 7/7=1,10=1,25=1,30=1/1,2,3,16;
 1/5=1,6=100,10=4,11=1,14=-1,18=10,26=3/3(3);
 2/15=1,29=1/2;
 7/7=1,8=1,9=1,25=1,30=1,44=-1/16;
 99/12=1/99;
 2/15=1,29=1/2;
 3/5=5,11=2,16=1,25=1,30=1,71=2,74=-5,140=1/1,2,3;
 4/5=5,16=3,69=1/1;
 5/5=2,8=3,38=5/8;
 8/6=4,10=90,11=11/1;
 11/6=1,8=1,9=11,15=111,16=1,31=1/1,2,10;
 10/6=1,31=1/2;
 7/7=1,10=1,25=1,30=1/1,2,3,16;
 1/5=1,6=100,10=4,11=1,14=-1,18=10,26=3/3(-8);
 2/15=1,29=1/2;
 6/7=2,8=2,9=2,10=2,18=1,19=2,28=1/1;
 7/7=1,8=1,9=1,25=1,30=1,44=-1/16;
 99/12=1/99;
 Leave Link    1 at Tue Jan  5 14:20:54 2021, MaxMem=           0 cpu:         0.0
 (Enter /apps/applications/gaussian/G09.D01/2/default/g09/l101.exe)
 ------------------------------
 Gaussian input prepared by ASE
 ------------------------------
 Symbolic Z-matrix:
 Charge =  0 Multiplicity = 2
 C                    -7.14496   0.31264   2.00652 
 C                    -7.48474   0.69892   0.68266 
 H                    -6.0747    0.31717   2.23834 
 H                    -7.60786  -0.62431   2.34225 
 H                    -7.6424    1.15012   2.78634 
 C                    -7.7986    1.02947  -0.43463 
 H                    -8.06835   1.31673  -1.38793 
 O                    -7.96123   2.14986   3.8262 
 H                    -7.37089   2.86808   3.54804 
 
 NAtoms=      9 NQM=        9 NQMF=       0 NMMI=      0 NMMIF=      0
                NMic=       0 NMicF=      0.
                    Isotopes and Nuclear Properties:
 (Nuclear quadrupole moments (NQMom) in fm**2, nuclear magnetic moments (NMagM)
  in nuclear magnetons)

  Atom         1           2           3           4           5           6           7           8           9
 IAtWgt=          12          12           1           1           1          12           1          16           1
 AtmWgt=  12.0000000  12.0000000   1.0078250   1.0078250   1.0078250  12.0000000   1.0078250  15.9949146   1.0078250
 NucSpn=           0           0           1           1           1           0           1           0           1
 AtZEff=   0.0000000   0.0000000   0.0000000   0.0000000   0.0000000   0.0000000   0.0000000   0.0000000   0.0000000
 NQMom=    0.0000000   0.0000000   0.0000000   0.0000000   0.0000000   0.0000000   0.0000000   0.0000000   0.0000000
 NMagM=    0.0000000   0.0000000   2.7928460   2.7928460   2.7928460   0.0000000   2.7928460   0.0000000   2.7928460
 AtZNuc=   6.0000000   6.0000000   1.0000000   1.0000000   1.0000000   6.0000000   1.0000000   8.0000000   1.0000000
 Leave Link  101 at Tue Jan  5 14:20:54 2021, MaxMem=    33554432 cpu:         0.1
 (Enter /apps/applications/gaussian/G09.D01/2/default/g09/l103.exe)

 GradGradGradGradGradGradGradGradGradGradGradGradGradGradGradGradGradGrad
 Berny optimization.
 Initialization pass.
 No Z-matrix variables, so optimization will use Cartesian coordinates.
 Trust Radius=3.00D-01 FncErr=1.00D-07 GrdErr=1.00D-06
 Number of steps in this run=    100 maximum allowed number of steps=    100.
 Search for a saddle point of order  1.
 GradGradGradGradGradGradGradGradGradGradGradGradGradGradGradGradGradGrad

 Leave Link  103 at Tue Jan  5 14:20:54 2021, MaxMem=    33554432 cpu:         0.0
 (Enter /apps/applications/gaussian/G09.D01/2/default/g09/l202.exe)
 ---------------------------------------------------------------------------------------------------
                            Z-MATRIX (ANGSTROMS AND DEGREES)
   CD    Cent   Atom    N1       Length/X        N2       Alpha/Y        N3        Beta/Z          J
 ---------------------------------------------------------------------------------------------------
      1      1  C        0  -7.144964          0.312638          2.006515
      2      2  C        0  -7.484735          0.698918          0.682662
      3      3  H        0  -6.074702          0.317170          2.238335
      4      4  H        0  -7.607855         -0.624310          2.342246
      5      5  H        0  -7.642399          1.150120          2.786342
      6      6  C        0  -7.798602          1.029475         -0.434628
      7      7  H        0  -8.068349          1.316729         -1.387930
      8      8  O        0  -7.961231          2.149863          3.826202
      9      9  H        0  -7.370887          2.868079          3.548043
 ---------------------------------------------------------------------------------------------------
                         Z-Matrix orientation:                         
 ---------------------------------------------------------------------
 Center     Atomic      Atomic             Coordinates (Angstroms)
 Number     Number       Type             X           Y           Z
 ---------------------------------------------------------------------
      1          6           0       -7.144964    0.312638    2.006515
      2          6           0       -7.484735    0.698918    0.682662
      3          1           0       -6.074702    0.317170    2.238335
      4          1           0       -7.607855   -0.624310    2.342246
      5          1           0       -7.642399    1.150120    2.786342
      6          6           0       -7.798602    1.029475   -0.434628
      7          1           0       -8.068349    1.316729   -1.387930
      8          8           0       -7.961231    2.149863    3.826202
      9          1           0       -7.370887    2.868079    3.548043
 ---------------------------------------------------------------------
                    Distance matrix (angstroms):
                    1          2          3          4          5
     1  C    0.000000
     2  C    1.420297   0.000000
     3  H    1.095089   2.134021   0.000000
     4  H    1.097659   2.126102   1.802149   0.000000
     5  H    1.247777   2.157293   1.857899   1.829485   0.000000
     6  C    2.626838   1.206697   3.259439   3.237656   3.227012
     7  H    3.658291   2.238223   4.257175   4.230118   4.199254
     8  O    2.711632   3.494873   3.072308   3.165918   1.477311
     9  H    2.992929   3.595641   3.146834   3.702280   1.898760
                    6          7          8          9
     6  C    0.000000
     7  H    1.031534   0.000000
     8  O    4.408672   5.281359   0.000000
     9  H    4.407388   5.220820   0.970419   0.000000
 Symmetry turned off by external request.
 Stoichiometry    C3H5O(2)
 Framework group  C1[X(C3H5O)]
 Deg. of freedom    21
 Full point group                 C1      NOp   1
 Rotational constants (GHZ):     17.4250909      2.9638316      2.5947624
 Leave Link  202 at Tue Jan  5 14:20:54 2021, MaxMem=    33554432 cpu:         0.0
 (Enter /apps/applications/gaussian/G09.D01/2/default/g09/l301.exe)
 Standard basis: 3-21G (6D, 7F)
 Ernie: Thresh=  0.10000D-02 Tol=  0.10000D-05 Strict=F.
    46 basis functions,    75 primitive gaussians,    46 cartesian basis functions
    16 alpha electrons       15 beta electrons
       nuclear repulsion energy        95.2850321796 Hartrees.
 IExCor=  402 DFT=T Ex+Corr=B3LYP ExCW=0 ScaHFX=  0.200000
 ScaDFX=  0.800000  0.720000  1.000000  0.810000 ScalE2=  1.000000  1.000000
 IRadAn=      0 IRanWt=     -1 IRanGd=            0 ICorTp=0 IEmpDi=  4
 NAtoms=    9 NActive=    9 NUniq=    9 SFac= 1.00D+00 NAtFMM=   60 NAOKFM=F Big=F
 Integral buffers will be    131072 words long.
 Raffenetti 2 integral format.
 Two-electron integral symmetry is turned off.
 Leave Link  301 at Tue Jan  5 14:20:54 2021, MaxMem=    33554432 cpu:         0.0
 (Enter /apps/applications/gaussian/G09.D01/2/default/g09/l302.exe)
 NPDir=0 NMtPBC=     1 NCelOv=     1 NCel=       1 NClECP=     1 NCelD=      1
         NCelK=      1 NCelE2=     1 NClLst=     1 CellRange=     0.0.
 One-electron integrals computed using PRISM.
 NBasis=    46 RedAO= T EigKep=  1.19D-03  NBF=    46
 NBsUse=    46 1.00D-06 EigRej= -1.00D+00 NBFU=    46
 Precomputing XC quadrature grid using
 IXCGrd= 4 IRadAn=           0 IRanWt=          -1 IRanGd=           0 AccXCQ= 0.00D+00.
 Generated NRdTot=       0 NPtTot=           0 NUsed=           0 NTot=          32
 NSgBfM=    46    46    46    46    46 MxSgAt=     9 MxSgA2=     9.
 Leave Link  302 at Tue Jan  5 14:20:54 2021, MaxMem=    33554432 cpu:         0.1
 (Enter /apps/applications/gaussian/G09.D01/2/default/g09/l303.exe)
 DipDrv:  MaxL=1.
 Leave Link  303 at Tue Jan  5 14:20:55 2021, MaxMem=    33554432 cpu:         0.0
 (Enter /apps/applications/gaussian/G09.D01/2/default/g09/l401.exe)
 ExpMin= 1.83D-01 ExpMax= 3.22D+02 ExpMxC= 3.22D+02 IAcc=1 IRadAn=         1 AccDes= 0.00D+00
 Harris functional with IExCor=  402 and IRadAn=       1 diagonalized for initial guess.
 HarFok:  IExCor=  402 AccDes= 0.00D+00 IRadAn=         1 IDoV= 1 UseB2=F ITyADJ=14
 ICtDFT=  3500011 ScaDFX=  1.000000  1.000000  1.000000  1.000000
 FoFCou: FMM=F IPFlag=           0 FMFlag=      100000 FMFlg1=           0
         NFxFlg=           0 DoJE=T BraDBF=F KetDBF=T FulRan=T
         wScrn=  0.000000 ICntrl=     500 IOpCl=  0 I1Cent=   200000004 NGrid=           0
         NMat0=    1 NMatS0=      1 NMatT0=    0 NMatD0=    1 NMtDS0=    0 NMtDT0=    0
 Symmetry not used in FoFCou.
 Harris En= -191.338531759199    
 JPrj=0 DoOrth=F DoCkMO=F.
 Initial guess <Sx>= 0.0000 <Sy>= 0.0000 <Sz>= 0.5000 <S**2>= 0.7500 S= 0.5000
 Leave Link  401 at Tue Jan  5 14:20:55 2021, MaxMem=    33554432 cpu:         0.2
 (Enter /apps/applications/gaussian/G09.D01/2/default/g09/l508.exe)
 Direct SCF.
 Tight linear equation convergence will be used.
 UB3LYP wavefunction.
 Quadratic Convergence SCF Method.
 Line search only if initial step raises energy.
 Two-electron integral symmetry not used.
 ReadGW:  IGet=1 IStart=         402 Next=         402 LGW=           0.
 Keep R1 and R2 ints in memory in canonical form, NReq=2054730.
 FoFCou: FMM=F IPFlag=           0 FMFlag=           0 FMFlg1=           0
         NFxFlg=           0 DoJE=F BraDBF=F KetDBF=F FulRan=T
         wScrn=  0.000000 ICntrl=     600 IOpCl=  0 I1Cent=           0 NGrid=           0
         NMat0=    1 NMatS0=   1081 NMatT0=    0 NMatD0=    1 NMtDS0=    0 NMtDT0=    0
 Symmetry not used in FoFCou.
 Iteration   1 EE= -191.211402464612                                    Grad=4.683D-01 Max rot=    6.2242 deg.
 Gradient too large for Newton-Raphson -- use scaled steepest descent instead.
 Alpha Gap=     0.219 HL deriv= 1.43D-03
  Beta Gap=     0.021 HL deriv= 4.05D-02
     ILin= 1 X=0.000D+00 Y=-1.912114024646D+02 DE= 0.00D+00 F= -4.82D-01
     ILin= 2 X=3.000D-01 Y=-1.913025888432D+02 DE=-9.12D-02 F= -1.28D-01
     ILin= 3 X=4.000D-01 Y=-1.913096908406D+02 DE=-9.83D-02 F= -1.49D-02
     ILin= 4 X=6.000D-01 Y=-1.912912342595D+02 DE=-7.98D-02 F=  1.96D-01
     An  expanding polynomial of degree  4 produced  0.4139
     Minimum is close to point  3 DX=  1.39D-02 DF= -1.07D-04 DXR=  3.37D-02 DFR=  1.09D-03 which will be used.
 Iteration   2 EE= -191.309690840599     Delta-E=       -0.098288375987 Grad=1.629D-01 Max rot=    1.7743 deg.
 Gradient too large for Newton-Raphson -- use scaled steepest descent instead.
 Alpha Gap=     0.338 HL deriv= 1.09D-04
  Beta Gap=     0.137 HL deriv= 1.50D-03
     ILin= 1 X=0.000D+00 Y=-1.913096908406D+02 DE= 0.00D+00 F= -4.64D-02
     ILin= 2 X=4.000D-01 Y=-1.913202772851D+02 DE=-1.06D-02 F= -6.53D-03
     ILin= 3 X=6.000D-01 Y=-1.913195930858D+02 DE=-9.90D-03 F=  1.34D-02
     An  expanding polynomial of degree  3 produced  0.4657
 Iteration   3 EE= -191.320491292870     Delta-E=       -0.010800452271 Grad=5.491D-02 Max rot=    1.1389 deg.
 Gradient too large for Newton-Raphson -- use scaled steepest descent instead.
 Alpha Gap=     0.302 HL deriv= 2.40D-04
  Beta Gap=     0.108 HL deriv= 1.49D-02
     ILin= 1 X=0.000D+00 Y=-1.913204912929D+02 DE= 0.00D+00 F= -9.43D-03
     ILin= 2 X=4.000D-01 Y=-1.913229123365D+02 DE=-2.42D-03 F= -2.75D-03
     ILin= 3 X=7.000D-01 Y=-1.913230249845D+02 DE=-2.53D-03 F=  1.94D-03
     Accept linear search using points  2 and  3.
     An  expanding polynomial of degree  3 produced  0.5480
 Iteration   4 EE= -191.323143868534     Delta-E=       -0.002652575664 Grad=4.342D-02 Max rot=    0.6089 deg.
 Gradient too large for Newton-Raphson -- use scaled steepest descent instead.
 Alpha Gap=     0.327 HL deriv= 1.31D-04
  Beta Gap=     0.130 HL deriv= 3.35D-03
     ILin= 1 X=0.000D+00 Y=-1.913231438685D+02 DE= 0.00D+00 F= -3.11D-03
     ILin= 2 X=5.000D-01 Y=-1.913240005778D+02 DE=-8.57D-04 F= -3.24D-04
     ILin= 3 X=1.000D+00 Y=-1.913234725934D+02 DE=-3.29D-04 F=  2.43D-03
     An  expanding polynomial of degree  3 produced  0.5593
 Iteration   5 EE= -191.324010073065     Delta-E=       -0.000866204531 Grad=1.638D-02 Max rot=    0.3937 deg.
 Gradient too large for Newton-Raphson -- use scaled steepest descent instead.
 Alpha Gap=     0.319 HL deriv= 7.65D-05
  Beta Gap=     0.124 HL deriv= 7.67D-03
     ILin= 1 X=0.000D+00 Y=-1.913240100731D+02 DE= 0.00D+00 F= -1.09D-03
     ILin= 2 X=6.000D-01 Y=-1.913243154765D+02 DE=-3.05D-04 F=  6.79D-05
     Accept linear search using points  1 and  2.
     An  expanding polynomial of degree  2 produced  0.4651
 Iteration   6 EE= -191.324307349289     Delta-E=       -0.000297276224 Grad=1.173D-02 Max rot=    0.2019 deg.
 Gradient too large for Newton-Raphson -- use scaled steepest descent instead.
 Alpha Gap=     0.326 HL deriv= 5.92D-05
  Beta Gap=     0.130 HL deriv= 4.31D-03
     ILin= 1 X=0.000D+00 Y=-1.913243073493D+02 DE= 0.00D+00 F= -3.08D-04
     ILin= 2 X=5.000D-01 Y=-1.913244195522D+02 DE=-1.12D-04 F= -1.41D-04
     ILin= 3 X=1.000D+00 Y=-1.913244483695D+02 DE=-1.41D-04 F=  2.58D-05
     Accept linear search using points  2 and  3.
     An  expanding polynomial of degree  3 produced  0.8045
 Iteration   7 EE= -191.324447036742     Delta-E=       -0.000139687453 Grad=6.341D-03 Max rot=    0.1290 deg.
 QCNR:  CnvC1=3.07D-09 CnvC2=3.07D-08
 LinEq1:  Iter=  0 NonCon=     1 RMS=6.18D-04 Max=1.58D-02 NDo=     1
 AX will form     1 AO Fock derivatives at one time.
 LinEq1:  Iter=  1 NonCon=     1 RMS=4.24D-04 Max=6.11D-03 NDo=     1
 LinEq1:  Iter=  2 NonCon=     1 RMS=2.21D-04 Max=4.48D-03 NDo=     1
 LinEq1:  Iter=  3 NonCon=     1 RMS=2.82D-04 Max=3.69D-03 NDo=     1
 LinEq1:  Iter=  4 NonCon=     1 RMS=7.31D-05 Max=7.18D-04 NDo=     1
 LinEq1:  Iter=  5 NonCon=     1 RMS=1.91D-05 Max=1.94D-04 NDo=     1
 LinEq1:  Iter=  6 NonCon=     1 RMS=9.43D-06 Max=9.45D-05 NDo=     1
 LinEq1:  Iter=  7 NonCon=     1 RMS=3.88D-06 Max=4.41D-05 NDo=     1
 LinEq1:  Iter=  8 NonCon=     1 RMS=1.97D-06 Max=2.02D-05 NDo=     1
 LinEq1:  Iter=  9 NonCon=     1 RMS=1.10D-06 Max=1.34D-05 NDo=     1
 LinEq1:  Iter= 10 NonCon=     1 RMS=3.17D-07 Max=2.62D-06 NDo=     1
 LinEq1:  Iter= 11 NonCon=     1 RMS=8.48D-08 Max=6.17D-07 NDo=     1
 LinEq1:  Iter= 12 NonCon=     1 RMS=1.60D-08 Max=2.08D-07 NDo=     1
 LinEq1:  Iter= 13 NonCon=     1 RMS=3.15D-09 Max=3.74D-08 NDo=     1
 LinEq1:  Iter= 14 NonCon=     0 RMS=4.36D-10 Max=3.45D-09 NDo=     1
 Linear equations converged to 3.074D-09 3.074D-08 after    14 iterations.
 Angle between quadratic step and gradient=  74.94 degrees.
     ILin= 1 X=0.000D+00 Y=-1.913244470367D+02 DE= 0.00D+00 F= -1.56D-04
     ILin= 2 X=1.000D+00 Y=-1.913245226141D+02 DE=-7.56D-05 F=  7.06D-06
     Accept linear search using points  1 and  2.
     An  expanding polynomial of degree  2 produced  0.9584
     Minimum is close to point  2 DX= -4.16D-02 DF= -1.47D-07 DXR=  4.34D-02 DFR=  1.94D-03 which will be used.
 Iteration   8 EE= -191.324522614141     Delta-E=       -0.000075577399 Grad=2.803D-04 Max rot=    0.0053 deg.
 QCNR:  CnvC1=2.80D-09 CnvC2=2.80D-08
 LinEq1:  Iter=  0 NonCon=     1 RMS=2.39D-05 Max=6.07D-04 NDo=     1
 LinEq1:  Iter=  1 NonCon=     1 RMS=2.73D-05 Max=5.44D-04 NDo=     1
 LinEq1:  Iter=  2 NonCon=     1 RMS=1.07D-05 Max=1.24D-04 NDo=     1
 LinEq1:  Iter=  3 NonCon=     1 RMS=1.21D-05 Max=1.57D-04 NDo=     1
 LinEq1:  Iter=  4 NonCon=     1 RMS=6.57D-06 Max=7.72D-05 NDo=     1
 LinEq1:  Iter=  5 NonCon=     1 RMS=2.83D-06 Max=2.61D-05 NDo=     1
 LinEq1:  Iter=  6 NonCon=     1 RMS=1.23D-06 Max=1.47D-05 NDo=     1
 LinEq1:  Iter=  7 NonCon=     1 RMS=3.54D-07 Max=3.98D-06 NDo=     1
 LinEq1:  Iter=  8 NonCon=     1 RMS=1.01D-07 Max=1.11D-06 NDo=     1
 LinEq1:  Iter=  9 NonCon=     1 RMS=4.46D-08 Max=3.57D-07 NDo=     1
 LinEq1:  Iter= 10 NonCon=     1 RMS=1.62D-08 Max=1.41D-07 NDo=     1
 LinEq1:  Iter= 11 NonCon=     1 RMS=3.80D-09 Max=2.84D-08 NDo=     1
 LinEq1:  Iter= 12 NonCon=     0 RMS=8.02D-10 Max=9.01D-09 NDo=     1
 Linear equations converged to 2.803D-09 2.803D-08 after    12 iterations.
 Angle between quadratic step and gradient=  75.26 degrees.
     ILin= 1 X=0.000D+00 Y=-1.913245226141D+02 DE= 0.00D+00 F= -6.35D-07
     ILin= 2 X=1.000D+00 Y=-1.913245229331D+02 DE=-3.19D-07 F= -3.77D-09
     Reject lnstep minimum 1.006D+00 FVal=-1.913245229331D+02 Lims=  0.00D+00  1.00D+00
     ILin= 3 X=2.000D+00 Y=-1.913245226242D+02 DE=-1.00D-08 F=  6.20D-07
     An  expanding polynomial of degree  3 produced  1.0080
     Minimum is close to point  2 DX=  7.98D-03 DF= -2.00D-11 DXR=  7.92D-03 DFR=  6.28D-05 which will be used.
 Iteration   9 EE= -191.324522933128     Delta-E=       -0.000000318987 Grad=3.359D-06 Max rot=    0.0001 deg.
 QCNR:  CnvC1=3.36D-11 CnvC2=3.36D-10
 LinEq1:  Iter=  0 NonCon=     1 RMS=2.53D-07 Max=4.59D-06 NDo=     1
 LinEq1:  Iter=  1 NonCon=     1 RMS=1.94D-07 Max=4.52D-06 NDo=     1
 LinEq1:  Iter=  2 NonCon=     1 RMS=7.24D-08 Max=6.59D-07 NDo=     1
 LinEq1:  Iter=  3 NonCon=     1 RMS=8.51D-08 Max=1.31D-06 NDo=     1
 LinEq1:  Iter=  4 NonCon=     1 RMS=4.58D-08 Max=4.29D-07 NDo=     1
 LinEq1:  Iter=  5 NonCon=     1 RMS=2.23D-08 Max=1.93D-07 NDo=     1
 LinEq1:  Iter=  6 NonCon=     1 RMS=9.76D-09 Max=8.66D-08 NDo=     1
 LinEq1:  Iter=  7 NonCon=     1 RMS=4.03D-09 Max=4.20D-08 NDo=     1
 LinEq1:  Iter=  8 NonCon=     1 RMS=2.12D-09 Max=2.06D-08 NDo=     1
 LinEq1:  Iter=  9 NonCon=     1 RMS=7.32D-10 Max=5.81D-09 NDo=     1
 LinEq1:  Iter= 10 NonCon=     1 RMS=1.97D-10 Max=1.85D-09 NDo=     1
 LinEq1:  Iter= 11 NonCon=     1 RMS=3.55D-11 Max=2.60D-10 NDo=     1
 LinEq1:  Iter= 12 NonCon=     0 RMS=7.50D-12 Max=8.80D-11 NDo=     1
 Linear equations converged to 3.359D-11 3.359D-10 after    12 iterations.
 Angle between quadratic step and gradient=  79.74 degrees.
     ILin= 1 X=0.000D+00 Y=-1.913245229331D+02 DE= 0.00D+00 F= -2.77D-11
     ILin= 2 X=1.000D+00 Y=-1.913245229331D+02 DE=-1.45D-11
 Iteration  10 EE= -191.324522933143     Delta-E=       -0.000000000014 Grad=2.793D-10 Max rot=    0.0000 deg.
 Rotation gradient small -- convergence achieved.
 SCF Done:  E(UB3LYP) =  -191.324522933     a.u. after   10 cycles
            Convg  =    0.2793D-09                    60 Fock formations.
              S**2 =  0.7586                  -V/T =  2.0084
 <Sx>= 0.0000 <Sy>= 0.0000 <Sz>= 0.5000 <S**2>= 0.7586 S= 0.5043
 <L.S>= 0.000000000000E+00
 Annihilation of the first spin contaminant:
 S**2 before annihilation     0.7586,   after     0.7500
 Leave Link  508 at Tue Jan  5 14:21:35 2021, MaxMem=    33554432 cpu:        38.6
 (Enter /apps/applications/gaussian/G09.D01/2/default/g09/l801.exe)
 DoSCS=F DFT=T ScalE2(SS,OS)=  1.000000  1.000000
 Range of M.O.s used for correlation:     1    46
 NBasis=    46 NAE=    16 NBE=    15 NFC=     0 NFV=     0
 NROrb=     46 NOA=    16 NOB=    15 NVA=    30 NVB=    31

 **** Warning!!: The largest alpha MO coefficient is  0.10963637D+02

 Leave Link  801 at Tue Jan  5 14:21:35 2021, MaxMem=    33554432 cpu:         0.0
 (Enter /apps/applications/gaussian/G09.D01/2/default/g09/l1101.exe)
 Using compressed storage, NAtomX=     9.
 Will process     10 centers per pass.
 Leave Link 1101 at Tue Jan  5 14:21:35 2021, MaxMem=    33554432 cpu:         0.1
 (Enter /apps/applications/gaussian/G09.D01/2/default/g09/l1102.exe)
 Symmetrizing basis deriv contribution to polar:
 IMax=3 JMax=2 DiffMx= 0.00D+00
 Leave Link 1102 at Tue Jan  5 14:21:35 2021, MaxMem=    33554432 cpu:         0.0
 (Enter /apps/applications/gaussian/G09.D01/2/default/g09/l1110.exe)
 Forming Gx(P) for the SCF density, NAtomX=     9.
 Integral derivatives from FoFJK, PRISM(SPDF).
 Do as many integral derivatives as possible in FoFJK.
 G2DrvN: MDV=      33554256.
 G2DrvN: will do    10 centers at a time, making    1 passes.
 Calling FoFCou, ICntrl=  3107 FMM=F I1Cent=   0 AccDes= 0.00D+00.
 FoFJK:  IHMeth= 1 ICntrl=    3107 DoSepK=F KAlg= 0 I1Cent=   0 FoldK=F
 IRaf=         0 NMat=   1 IRICut=       1 DoRegI=T DoRafI=F ISym2E= 0.
 FoFCou: FMM=F IPFlag=           0 FMFlag=      100000 FMFlg1=           0
         NFxFlg=           0 DoJE=F BraDBF=F KetDBF=F FulRan=T
         wScrn=  0.000000 ICntrl=    3107 IOpCl=  1 I1Cent=           0 NGrid=           0
         NMat0=    1 NMatS0=      1 NMatT0=    0 NMatD0=    1 NMtDS0=    0 NMtDT0=    0
 Symmetry not used in FoFCou.
 End of G2Drv F.D. properties file   721 does not exist.
 End of G2Drv F.D. properties file   722 does not exist.
 End of G2Drv F.D. properties file   788 does not exist.
 Leave Link 1110 at Tue Jan  5 14:21:45 2021, MaxMem=    33554432 cpu:         9.6
 (Enter /apps/applications/gaussian/G09.D01/2/default/g09/l1002.exe)
 Minotr:  UHF open shell wavefunction.
          IDoAtm=111111111
          Direct CPHF calculation.
          Differentiating once with respect to electric field.
                with respect to dipole field.
          Differentiating once with respect to nuclear coordinates.
          Requested convergence is 1.0D-08 RMS, and 1.0D-07 maximum.
          Secondary convergence is 1.0D-12 RMS, and 1.0D-12 maximum.
          NewPWx=T KeepS1=F KeepF1=F KeepIn=T MapXYZ=F SortEE=F KeepMc=T.
          MDV=      33554246 using IRadAn=       2.
 Generate precomputed XC quadrature information.
 Keep R1 and R2 ints in memory in canonical form, NReq=2035827.
 FoFCou: FMM=F IPFlag=           0 FMFlag=           0 FMFlg1=           0
         NFxFlg=           0 DoJE=F BraDBF=F KetDBF=F FulRan=T
         wScrn=  0.000000 ICntrl=     600 IOpCl=  0 I1Cent=           0 NGrid=           0
         NMat0=    1 NMatS0=   1081 NMatT0=    0 NMatD0=    1 NMtDS0=    0 NMtDT0=    0
 Symmetry not used in FoFCou.
          Solving linear equations simultaneously, MaxMat=       0.
          There are    30 degrees of freedom in the 1st order CPHF.  IDoFFX=6 NUNeed=     3.
     27 vectors produced by pass  0 Test12= 3.15D-15 3.33D-09 XBig12= 2.18D+02 9.14D+00.
 AX will form    27 AO Fock derivatives at one time.
     27 vectors produced by pass  1 Test12= 3.15D-15 3.33D-09 XBig12= 3.07D+01 1.19D+00.
     27 vectors produced by pass  2 Test12= 3.15D-15 3.33D-09 XBig12= 3.17D-01 9.08D-02.
     27 vectors produced by pass  3 Test12= 3.15D-15 3.33D-09 XBig12= 9.47D-04 5.97D-03.
     27 vectors produced by pass  4 Test12= 3.15D-15 3.33D-09 XBig12= 4.34D-06 3.80D-04.
     25 vectors produced by pass  5 Test12= 3.15D-15 3.33D-09 XBig12= 1.07D-08 1.44D-05.
      5 vectors produced by pass  6 Test12= 3.15D-15 3.33D-09 XBig12= 1.63D-11 6.09D-07.
      3 vectors produced by pass  7 Test12= 3.15D-15 3.33D-09 XBig12= 2.60D-14 2.11D-08.
 InvSVY:  IOpt=1 It=  1 EMax= 1.42D-14
 Solved reduced A of dimension   168 with    30 vectors.
 FullF1:  Do perturbations    1 to     3.
 Isotropic polarizability for W=    0.000000       41.59 Bohr**3.
 End of Minotr F.D. properties file   721 does not exist.
 End of Minotr F.D. properties file   722 does not exist.
 End of Minotr F.D. properties file   788 does not exist.
 Leave Link 1002 at Tue Jan  5 14:21:54 2021, MaxMem=    33554432 cpu:         8.5
 (Enter /apps/applications/gaussian/G09.D01/2/default/g09/l601.exe)
 Copying SCF densities to generalized density rwf, IOpCl= 1 IROHF=0.

 **********************************************************************

            Population analysis using the SCF density.

 **********************************************************************

 Alpha  occ. eigenvalues --  -19.04573 -10.15596 -10.13735 -10.12430  -0.97704
 Alpha  occ. eigenvalues --   -0.79347  -0.71616  -0.54686  -0.48160  -0.46214
 Alpha  occ. eigenvalues --   -0.44597  -0.40981  -0.33117  -0.28214  -0.27940
 Alpha  occ. eigenvalues --   -0.25624
 Alpha virt. eigenvalues --    0.05082   0.06260   0.11305   0.14622   0.16105
 Alpha virt. eigenvalues --    0.20414   0.26352   0.27487   0.48098   0.67402
 Alpha virt. eigenvalues --    0.69429   0.70179   0.78332   0.79406   0.86324
 Alpha virt. eigenvalues --    0.89759   0.94181   0.98514   1.03887   1.04287
 Alpha virt. eigenvalues --    1.09294   1.13590   1.25004   1.41403   1.43359
 Alpha virt. eigenvalues --    1.49801   1.64771   2.04764   2.07431   2.81359
  Beta  occ. eigenvalues --  -19.02771 -10.15160 -10.13835 -10.12226  -0.92727
  Beta  occ. eigenvalues --   -0.78833  -0.70786  -0.54409  -0.47539  -0.44527
  Beta  occ. eigenvalues --   -0.43775  -0.38108  -0.27830  -0.27624  -0.25912
  Beta virt. eigenvalues --   -0.13237   0.05165   0.07085   0.12167   0.14947
  Beta virt. eigenvalues --    0.16453   0.20737   0.27359   0.29044   0.48362
  Beta virt. eigenvalues --    0.67624   0.69534   0.70693   0.78845   0.80334
  Beta virt. eigenvalues --    0.86806   0.89865   0.94212   0.98886   1.03997
  Beta virt. eigenvalues --    1.04492   1.09250   1.13961   1.25118   1.41907
  Beta virt. eigenvalues --    1.44926   1.54976   1.68580   2.05243   2.08457
  Beta virt. eigenvalues --    2.84844
          Condensed to atoms (all electrons):
               1          2          3          4          5          6
     1  C    5.643625   0.226579   0.364767   0.365928   0.193691  -0.067200
     2  C    0.226579   4.826602  -0.047803  -0.046932  -0.041054   0.968413
     3  H    0.364767  -0.047803   0.494361  -0.024671  -0.017967  -0.001861
     4  H    0.365928  -0.046932  -0.024671   0.476025  -0.017114  -0.001989
     5  H    0.193691  -0.041054  -0.017967  -0.017114   0.500998  -0.002623
     6  C   -0.067200   0.968413  -0.001861  -0.001989  -0.002623   5.084862
     7  H    0.000837  -0.024743  -0.000018  -0.000017  -0.000017   0.378341
     8  O   -0.029968  -0.000634  -0.000342  -0.000043   0.122209  -0.000053
     9  H    0.010681  -0.000487  -0.000137   0.000039  -0.028698  -0.000086
               7          8          9
     1  C    0.000837  -0.029968   0.010681
     2  C   -0.024743  -0.000634  -0.000487
     3  H   -0.000018  -0.000342  -0.000137
     4  H   -0.000017  -0.000043   0.000039
     5  H   -0.000017   0.122209  -0.028698
     6  C    0.378341  -0.000053  -0.000086
     7  H    0.404567   0.000000  -0.000001
     8  O    0.000000   8.121406   0.202631
     9  H   -0.000001   0.202631   0.488236
          Atomic-Atomic Spin Densities.
               1          2          3          4          5          6
     1  C    0.424936  -0.044785  -0.010290  -0.014724  -0.010678  -0.009870
     2  C   -0.044785  -0.077142   0.002450   0.003375   0.008382   0.003243
     3  H   -0.010290   0.002450  -0.010817   0.001732   0.004440   0.000050
     4  H   -0.014724   0.003375   0.001732  -0.003816   0.004487   0.000051
     5  H   -0.010678   0.008382   0.004440   0.004487  -0.093358   0.000951
     6  C   -0.009870   0.003243   0.000050   0.000051   0.000951   0.175882
     7  H   -0.000043  -0.000737   0.000002   0.000003   0.000005  -0.000128
     8  O   -0.034892   0.001672   0.000723   0.000786   0.004069   0.000086
     9  H    0.001488  -0.000158  -0.000064  -0.000036   0.000801  -0.000023
               7          8          9
     1  C   -0.000043  -0.034892   0.001488
     2  C   -0.000737   0.001672  -0.000158
     3  H    0.000002   0.000723  -0.000064
     4  H    0.000003   0.000786  -0.000036
     5  H    0.000005   0.004069   0.000801
     6  C   -0.000128   0.000086  -0.000023
     7  H   -0.005687   0.000000   0.000000
     8  O    0.000000   0.798394  -0.004760
     9  H    0.000000  -0.004760  -0.023608
 Mulliken charges and spin densities:
               1          2
     1  C   -0.708940   0.301142
     2  C    0.140059  -0.103700
     3  H    0.233670  -0.011776
     4  H    0.248774  -0.008141
     5  H    0.290575  -0.080901
     6  C   -0.357805   0.170243
     7  H    0.241051  -0.006586
     8  O   -0.415206   0.766078
     9  H    0.327821  -0.026359
 Sum of Mulliken charges =   0.00000   1.00000
 Mulliken charges and spin densities with hydrogens summed into heavy atoms:
               1          2
     1  C    0.064080   0.200325
     2  C    0.140059  -0.103700
     6  C   -0.116754   0.163656
     8  O   -0.087385   0.739719
 APT charges:
               1
     1  C    0.373648
     2  C   -0.197436
     3  H   -0.015528
     4  H    0.005007
     5  H   -0.259424
     6  C   -0.228845
     7  H    0.225780
     8  O   -0.158176
     9  H    0.254976
 Sum of APT charges =   0.00000
 APT charges with hydrogens summed into heavy atoms:
               1
     1  C    0.103703
     2  C   -0.197436
     6  C   -0.003066
     8  O    0.096799
 Electronic spatial extent (au):  <R**2>=           7294.5575
 Charge=              0.0000 electrons
 Dipole moment (field-independent basis, Debye):
    X=              1.2726    Y=              0.5147    Z=             -0.8051  Tot=              1.5914
 Quadrupole moment (field-independent basis, Debye-Ang):
   XX=            -44.2644   YY=            -20.0725   ZZ=            -27.2833
   XY=             -1.3862   XZ=             11.9600   YZ=             -0.7669
 Traceless Quadrupole moment (field-independent basis, Debye-Ang):
   XX=            -13.7244   YY=             10.4676   ZZ=              3.2568
   XY=             -1.3862   XZ=             11.9600   YZ=             -0.7669
 Octapole moment (field-independent basis, Debye-Ang**2):
  XXX=            788.1356  YYY=            -56.7096  ZZZ=           -149.5229  XYY=            157.2963
  XXY=            -34.8457  XXZ=           -173.2369  XZZ=            222.0134  YZZ=            -24.5678
  YYZ=            -24.9412  XYZ=             17.1941
 Hexadecapole moment (field-independent basis, Debye-Ang**3):
 XXXX=         -10896.6696 YYYY=           -189.8128 ZZZZ=           -918.4801 XXXY=            821.2885
 XXXZ=           2231.3777 YYYX=            457.1692 YYYZ=            -91.4026 ZZZX=           1188.5010
 ZZZY=           -186.5445 XXYY=          -1284.7681 XXZZ=          -1931.7916 YYZZ=           -118.5067
 XXYZ=           -271.9035 YYXZ=            211.8950 ZZXY=            224.1776
 N-N= 9.528503217963D+01 E-N=-6.371115924269D+02  KE= 1.897304619025D+02
  Exact polarizability:  20.401  -3.407  32.854   1.263  10.730  71.513
 Approx polarizability:  26.906  -5.944  40.694   3.528   9.841 117.122
                          Isotropic Fermi Contact Couplings
        Atom                 a.u.       MegaHertz       Gauss      10(-4) cm-1
     1  C(13)              0.07964      89.52853      31.94601      29.86350
     2  C(13)             -0.01463     -16.45250      -5.87066      -5.48796
     3  H(1)              -0.00329     -14.68650      -5.24051      -4.89889
     4  H(1)              -0.00208      -9.29951      -3.31830      -3.10198
     5  H(1)              -0.01481     -66.21237     -23.62622     -22.08607
     6  C(13)              0.01728      19.42115       6.92995       6.47820
     7  H(1)              -0.00234     -10.48098      -3.73987      -3.49608
     8  O(17)              0.06300     -38.19011     -13.62718     -12.73885
     9  H(1)              -0.01032     -46.14726     -16.46649     -15.39307
 --------------------------------------------------------
       Center         ----  Spin Dipole Couplings  ----
                      3XX-RR        3YY-RR        3ZZ-RR
 --------------------------------------------------------
     1   Atom       -0.080694      0.081244     -0.000550
     2   Atom       -0.014012     -0.032133      0.046145
     3   Atom        0.021662     -0.009697     -0.011965
     4   Atom       -0.009093      0.018624     -0.009531
     5   Atom       -0.055452      0.028082      0.027371
     6   Atom       -0.015644      0.069126     -0.053482
     7   Atom       -0.008023     -0.004085      0.012108
     8   Atom       -0.551951      0.049098      0.502854
     9   Atom       -0.002412      0.053814     -0.051401
 --------------------------------------------------------
                        XY            XZ            YZ
 --------------------------------------------------------
     1   Atom       -0.115203     -0.094101      0.180882
     2   Atom        0.013691      0.017289     -0.020030
     3   Atom       -0.005563      0.003221      0.009234
     4   Atom        0.010171     -0.010396     -0.002532
     5   Atom       -0.040111     -0.040037      0.102679
     6   Atom       -0.071462     -0.034199      0.056114
     7   Atom       -0.004711      0.004341     -0.003259
     8   Atom       -0.962049     -1.162577      1.537820
     9   Atom        0.088787     -0.054576     -0.024588
 --------------------------------------------------------


 ---------------------------------------------------------------------------------
              Anisotropic Spin Dipole Couplings in Principal Axis System
 ---------------------------------------------------------------------------------

       Atom             a.u.   MegaHertz   Gauss  10(-4) cm-1        Axes

              Baa    -0.1456   -19.535    -6.971    -6.516  0.2853 -0.5048  0.8147
     1 C(13)  Bbb    -0.1405   -18.858    -6.729    -6.290  0.8817  0.4715 -0.0166
              Bcc     0.2861    38.393    13.700    12.807 -0.3758  0.7231  0.5796
 
              Baa    -0.0467    -6.272    -2.238    -2.092 -0.4895  0.8292  0.2699
     2 C(13)  Bbb    -0.0071    -0.953    -0.340    -0.318  0.8473  0.5254 -0.0775
              Bcc     0.0538     7.225     2.578     2.410  0.2061 -0.1908  0.9598
 
              Baa    -0.0210   -11.210    -4.000    -3.739 -0.1422 -0.6669  0.7314
     3 H(1)   Bbb    -0.0017    -0.902    -0.322    -0.301  0.0798  0.7288  0.6800
              Bcc     0.0227    12.112     4.322     4.040  0.9866 -0.1551  0.0504
 
              Baa    -0.0205   -10.942    -3.904    -3.650  0.7349 -0.1482  0.6618
     4 H(1)   Bbb    -0.0025    -1.335    -0.476    -0.445 -0.5807  0.3667  0.7269
              Bcc     0.0230    12.277     4.381     4.095  0.3504  0.9185 -0.1834
 
              Baa    -0.0750   -39.992   -14.270   -13.340  0.0117 -0.7035  0.7106
     5 H(1)   Bbb    -0.0714   -38.080   -13.588   -12.702  0.9627  0.2001  0.1823
              Bcc     0.1463    78.071    27.858    26.042 -0.2704  0.6819  0.6796
 
              Baa    -0.0768   -10.304    -3.677    -3.437  0.2414 -0.2431  0.9395
     6 C(13)  Bbb    -0.0562    -7.539    -2.690    -2.515  0.8492  0.5215 -0.0832
              Bcc     0.1330    17.843     6.367     5.952 -0.4697  0.8179  0.3323
 
              Baa    -0.0113    -6.038    -2.154    -2.014  0.8521  0.5163 -0.0861
     7 H(1)   Bbb    -0.0027    -1.428    -0.509    -0.476 -0.4674  0.8245  0.3190
              Bcc     0.0140     7.465     2.664     2.490  0.2357 -0.2316  0.9438
 
              Baa    -1.3092    94.733    33.803    31.599  0.6620 -0.3059  0.6843
     8 O(17)  Bbb    -1.2524    90.620    32.335    30.227  0.6096  0.7509 -0.2541
              Bcc     2.5616  -185.352   -66.138   -61.827 -0.4361  0.5853  0.6835
 
              Baa    -0.0953   -50.849   -18.144   -16.961  0.6758 -0.2907  0.6773
     9 H(1)   Bbb    -0.0385   -20.555    -7.334    -6.856 -0.4281  0.5932  0.6818
              Bcc     0.1338    71.404    25.479    23.818  0.6000  0.7507 -0.2764
 

 ---------------------------------------------------------------------------------

 No NMR shielding tensors so no spin-rotation constants.
 Leave Link  601 at Tue Jan  5 14:21:54 2021, MaxMem=    33554432 cpu:         0.1
 (Enter /apps/applications/gaussian/G09.D01/2/default/g09/l701.exe)
 Compute integral second derivatives.
 ... and contract with generalized density number  0.
 Leave Link  701 at Tue Jan  5 14:21:54 2021, MaxMem=    33554432 cpu:         0.1
 (Enter /apps/applications/gaussian/G09.D01/2/default/g09/l702.exe)
 L702 exits ... SP integral derivatives will be done elsewhere.
 Leave Link  702 at Tue Jan  5 14:21:54 2021, MaxMem=    33554432 cpu:         0.0
 (Enter /apps/applications/gaussian/G09.D01/2/default/g09/l703.exe)
 Compute integral second derivatives, UseDBF=F ICtDFT=           0.
 Integral derivatives from FoFJK, PRISM(SPDF).
 Calling FoFJK, ICntrl=    100127 FMM=F ISym2X=0 I1Cent= 0 IOpClX= 1 NMat=1 NMatS=1 NMatT=0.
 FoFJK:  IHMeth= 1 ICntrl=  100127 DoSepK=F KAlg= 0 I1Cent=   0 FoldK=F
 IRaf=         0 NMat=   1 IRICut=       1 DoRegI=T DoRafI=F ISym2E= 0.
 FoFCou: FMM=F IPFlag=           0 FMFlag=      100000 FMFlg1=         800
         NFxFlg=           0 DoJE=F BraDBF=F KetDBF=F FulRan=T
         wScrn=  0.000000 ICntrl=  100127 IOpCl=  1 I1Cent=           0 NGrid=           0
         NMat0=    1 NMatS0=      1 NMatT0=    0 NMatD0=    1 NMtDS0=    0 NMtDT0=    0
 Symmetry not used in FoFCou.
 Leave Link  703 at Tue Jan  5 14:22:03 2021, MaxMem=    33554432 cpu:         8.2
 (Enter /apps/applications/gaussian/G09.D01/2/default/g09/l716.exe)
 Dipole        = 5.00671259D-01 2.02511356D-01-3.16740599D-01
 Polarizability= 2.04008261D+01-3.40652070D+00 3.28541154D+01
                 1.26251633D+00 1.07299058D+01 7.15128198D+01
 -------------------------------------------------------------------
 Center     Atomic                   Forces (Hartrees/Bohr)
 Number     Number              X              Y              Z
 -------------------------------------------------------------------
      1        6          -0.009717960    0.018664134    0.032301820
      2        6           0.000351331   -0.002773275   -0.007328107
      3        1          -0.000229874   -0.000420260   -0.002924041
      4        1           0.000738617    0.001027651   -0.002589995
      5        1           0.006956928   -0.013505922   -0.007963726
      6        6           0.005516635   -0.004687568    0.019002546
      7        1          -0.006663824    0.007077885   -0.023932982
      8        8          -0.018563733   -0.032456343    0.003115434
      9        1           0.021611877    0.027073698   -0.009680947
 -------------------------------------------------------------------
 Cartesian Forces:  Max     0.032456343 RMS     0.014454701
 Force constants in Cartesian coordinates: 
                1             2             3             4             5 
      1  0.516794D+00
      2  0.766918D-01  0.403227D+00
      3  0.831766D-01 -0.144468D+00  0.436080D+00
      4 -0.855311D-01  0.159114D-01 -0.506054D-01  0.185815D+00
      5  0.130419D-01 -0.825189D-01  0.573559D-01 -0.926477D-01  0.194241D+00
      6 -0.682720D-01  0.868566D-01 -0.255771D+00  0.322339D+00 -0.346368D+00
      7 -0.302233D+00 -0.733191D-02 -0.547766D-01 -0.246739D-02  0.173668D-02
      8 -0.149596D-02 -0.398309D-01  0.104136D-01  0.860693D-02 -0.156398D-02
      9 -0.492158D-01  0.566125D-02 -0.516247D-01 -0.380491D-01  0.243924D-02
     10 -0.926376D-01 -0.971849D-01  0.246153D-01  0.422656D-02  0.946364D-02
     11 -0.102054D+00 -0.234056D+00  0.739186D-01  0.500305D-03 -0.435350D-02
     12  0.266785D-01  0.664548D-01 -0.622442D-01  0.126633D-01  0.337417D-01
     13 -0.450651D-01  0.364618D-02 -0.461690D-02  0.372124D-02 -0.944201D-02
     14 -0.630433D-02 -0.319538D-01  0.333162D-01 -0.116906D-01  0.115687D-01
     15 -0.587606D-02  0.128682D-01 -0.577819D-02  0.320032D-02 -0.102125D-01
     16  0.737301D-02 -0.586136D-03 -0.799952D-02 -0.109437D+00  0.759837D-01
     17  0.497155D-03  0.721507D-02  0.878687D-02  0.760262D-01 -0.117594D+00
     18 -0.320093D-02  0.370250D-03 -0.225688D-01 -0.253834D+00  0.268434D+00
     19  0.541927D-02  0.703005D-03 -0.117730D-02  0.447492D-02 -0.401145D-03
     20  0.817177D-03  0.511506D-02  0.145092D-02 -0.715573D-03  0.456503D-02
     21 -0.127441D-02  0.112196D-02  0.773227D-03  0.128127D-02 -0.111440D-02
     22 -0.546358D-02  0.733648D-02  0.143636D-01 -0.112996D-02  0.317756D-02
     23  0.174084D-01 -0.251101D-01 -0.376273D-01  0.351666D-02 -0.448825D-02
     24  0.179252D-01 -0.279184D-01 -0.389284D-01  0.353203D-02 -0.469143D-02
     25  0.134420D-02  0.814026D-03 -0.297979D-02  0.327296D-03 -0.912655D-03
     26  0.139782D-02 -0.208767D-02 -0.314707D-02  0.492345D-03  0.144386D-03
     27  0.589546D-04 -0.946881D-03  0.621479D-04 -0.528067D-03  0.416316D-03
                6             7             8             9            10 
      6  0.127047D+01
      7 -0.459379D-02  0.328449D+00
      8 -0.472979D-03  0.363333D-02  0.432871D-01
      9 -0.141723D-01  0.595140D-01 -0.606087D-02  0.644150D-01
     10  0.147745D-03 -0.122609D-01 -0.294697D-01  0.884133D-02  0.985909D-01
     11  0.355415D-02  0.141712D-02  0.171626D-02 -0.112934D-02  0.107245D+00
     12 -0.187966D-01 -0.176389D-02 -0.541773D-02  0.209055D-02 -0.304506D-01
     13  0.783577D-02 -0.123931D-01  0.188059D-01  0.166090D-01  0.179599D-02
     14 -0.263501D-01  0.161840D-02 -0.683315D-02 -0.308525D-02  0.128441D-01
     15 -0.547796D-01  0.794793D-03 -0.258130D-02 -0.159228D-02  0.186114D-02
     16 -0.254886D+00  0.730270D-04  0.175816D-03  0.134725D-02  0.603406D-04
     17  0.269690D+00 -0.579038D-03  0.841751D-03  0.466850D-03 -0.213322D-03
     18 -0.949297D+00  0.136021D-02  0.181877D-02 -0.396355D-03 -0.243376D-02
     19  0.103916D-02  0.655731D-04 -0.275872D-03  0.106167D-02 -0.228105D-03
     20 -0.187783D-02  0.646939D-05 -0.802685D-04  0.108365D-03 -0.271507D-03
     21  0.883807D-02 -0.174028D-04  0.875576D-04 -0.266857D-03 -0.287036D-04
     22 -0.409846D-02  0.903850D-03 -0.335279D-03 -0.208233D-03  0.103414D-02
     23  0.131182D-01 -0.862115D-03  0.239160D-02  0.150219D-02 -0.225170D-02
     24  0.139684D-01 -0.302715D-03  0.179490D-02  0.102413D-02 -0.264488D-02
     25  0.487984D-03 -0.137641D-03  0.354910D-03  0.998535D-04 -0.581362D-03
     26  0.185060D-02  0.361050D-03  0.715758D-04  0.975582D-04 -0.161684D-03
     27 -0.455030D-03 -0.214639D-03  0.418048D-03  0.522787D-03  0.924026D-04
               11            12            13            14            15 
     11  0.256233D+00
     12 -0.774377D-01  0.772811D-01
     13 -0.638702D-02 -0.502996D-02  0.590230D-01
     14 -0.232650D-01 -0.182082D-01  0.130084D-01  0.416459D-01
     15 -0.382903D-03 -0.834016D-03  0.485028D-02 -0.268483D-01  0.309105D-01
     16 -0.834434D-03 -0.882148D-03 -0.121198D-02  0.492671D-02  0.226931D-02
     17  0.394899D-03 -0.102111D-02  0.310508D-02 -0.453835D-02 -0.221753D-02
     18 -0.469352D-03  0.210631D-03 -0.519927D-02  0.117721D-01  0.105649D-01
     19  0.607062D-04 -0.590225D-03 -0.111718D-03  0.118804D-03 -0.278215D-03
     20  0.955543D-04 -0.929472D-03  0.977599D-04 -0.203619D-03  0.503442D-03
     21  0.218515D-04 -0.973850D-04  0.639619D-04  0.141798D-03  0.465946D-03
     22 -0.321642D-03 -0.111412D-02 -0.621905D-02 -0.158861D-01 -0.113650D-01
     23  0.241074D-02  0.232709D-02 -0.132917D-01  0.174812D-01  0.222115D-01
     24  0.161837D-02  0.253464D-02 -0.963489D-02  0.371793D-01  0.194343D-01
     25  0.373746D-03  0.489191D-03  0.460824D-03  0.136465D-02  0.454345D-02
     26  0.824216D-03  0.490640D-03 -0.954254D-02 -0.390195D-02  0.665937D-02
     27  0.306300D-03 -0.144706D-03 -0.487802D-02 -0.791736D-02  0.160849D-02
               16            17            18            19            20 
     16  0.149597D+00
     17 -0.113203D+00  0.162415D+00
     18  0.380756D+00 -0.404374D+00  0.140050D+01
     19 -0.470551D-01  0.353353D-01 -0.119081D+00  0.374297D-01
     20  0.355719D-01 -0.511835D-01  0.127515D+00 -0.355049D-01  0.416665D-01
     21 -0.119089D+00  0.126734D+00 -0.434460D+00  0.119102D+00 -0.126841D+00
     22  0.875901D-03 -0.136807D-02  0.241695D-02 -0.536153D-05  0.165477D-04
     23 -0.192863D-02  0.237550D-02 -0.486234D-02  0.000000D+00 -0.814168D-05
     24 -0.169102D-02  0.195682D-02 -0.503650D-02 -0.675216D-04  0.881735D-04
     25 -0.275044D-03  0.399324D-03 -0.784769D-03  0.108428D-04 -0.178683D-04
     26 -0.106300D-03  0.739903D-04 -0.204319D-03 -0.366571D-04  0.333535D-04
     27  0.173968D-03 -0.225991D-04  0.486948D-03 -0.796007D-05 -0.177117D-04
               21            22            23            24            25 
     21  0.424794D+00
     22 -0.509699D-04  0.192881D+00
     23 -0.430949D-04  0.240664D+00  0.288463D+00
     24  0.849197D-04 -0.101805D+00 -0.108768D+00  0.430096D-01
     25  0.131444D-04 -0.182877D+00 -0.243256D+00  0.946893D-01  0.181728D+00
     26 -0.109322D-03 -0.233284D+00 -0.283516D+00  0.987400D-01  0.240879D+00
     27 -0.131572D-03  0.101862D+00  0.112141D+00 -0.360910D-01 -0.965584D-01
               26            27 
     26  0.288358D+00
     27 -0.104377D+00  0.341420D-01
 Leave Link  716 at Tue Jan  5 14:22:03 2021, MaxMem=    33554432 cpu:         0.0
 (Enter /apps/applications/gaussian/G09.D01/2/default/g09/l103.exe)

 GradGradGradGradGradGradGradGradGradGradGradGradGradGradGradGradGradGrad
 Berny optimization.
 Search for a saddle point.
 Step number   1 out of a maximum of  100
 All quantities printed in internal units (Hartrees-Bohrs-Radians)
 Swapping is turned off.
 Second derivative matrix not updated -- analytic derivatives used.
 ITU=  0
     Eigenvalues ---   -0.05836  -0.02994  -0.00382   0.00055   0.00570
     Eigenvalues ---    0.01134   0.02368   0.04427   0.04479   0.08006
     Eigenvalues ---    0.09061   0.10313   0.11549   0.16032   0.18708
     Eigenvalues ---    0.31957   0.57291   0.74893   0.87117   0.90314
     Eigenvalues ---    2.72436
 Eigenvectors required to have negative eigenvalues:
                          Y5        Z8        Z5        Y8        Z4
   1                    0.53600  -0.48277   0.47353  -0.32445   0.15861
                          X5        Y4        Z2        X4        X8
   1                   -0.15164   0.13273   0.11745  -0.10637   0.09964
 Eigenvalue     2 is  -2.99D-02 should be greater than     0.000000 Eigenvector:
                          X9        Z9        Y9        X8        Z8
   1                    0.62701   0.53160  -0.31316  -0.29872  -0.21647
                          Y8        X4        X7        X3        Z5
   1                    0.15694   0.12178  -0.11597   0.08515  -0.07705
 Eigenvalue     3 is  -3.82D-03 should be greater than     0.000000 Eigenvector:
                          Z9        Y9        X9        X5        Y3
   1                    0.68910   0.43435  -0.25736   0.21617  -0.17879
                          X4        Y7        Y4        Y5        Z5
   1                   -0.16866  -0.15470   0.14578   0.14364  -0.14089
 RFO step:  Lambda0=1.690335128D-03 Lambda=-2.99593222D-02.
 Linear search not attempted -- option 19 set.
 Maximum step size (   0.300) exceeded in Quadratic search.
    -- Step size scaled by   0.319
 TrRot=  0.009575  0.060271  0.039782  2.507239  0.004317 -2.502271
 Variable       Old X    -DE/DX   Delta X   Delta X   Delta X     New X
                                 (Linear)    (Quad)   (Total)
    X1      -13.50202  -0.00972   0.00000   0.00807   0.00157 -13.50046
    Y1        0.59080   0.01866   0.00000   0.02811   0.03103   0.62183
    Z1        3.79176   0.03230   0.00000   0.01943   0.01084   3.80260
    X2      -14.14410   0.00035   0.00000   0.00056  -0.00061 -14.14471
    Y2        1.32076  -0.00277   0.00000  -0.00723  -0.01400   1.30676
    Z2        1.29004  -0.00733   0.00000  -0.00130  -0.01391   1.27614
    X3      -11.47952  -0.00023   0.00000   0.01700   0.00925 -11.47028
    Y3        0.59936  -0.00042   0.00000  -0.01353   0.00051   0.59987
    Z3        4.22984  -0.00292   0.00000  -0.02247  -0.02394   4.20590
    X4      -14.37676   0.00074   0.00000  -0.00417  -0.00411 -14.38087
    Y4       -1.17977   0.00103   0.00000   0.03396   0.03413  -1.14564
    Z4        4.42620  -0.00259   0.00000   0.02057   0.01345   4.43965
    X5      -14.44204   0.00696   0.00000   0.05056   0.03132 -14.41072
    Y5        2.17341  -0.01351   0.00000   0.01823   0.02031   2.19372
    Z5        5.26542  -0.00796   0.00000  -0.02890  -0.04466   5.22076
    X6      -14.73722   0.00552   0.00000  -0.01517  -0.01207 -14.74929
    Y6        1.94543  -0.00469   0.00000  -0.01133  -0.02654   1.91889
    Z6       -0.82133   0.01900   0.00000   0.00110  -0.01520  -0.83652
    X7      -15.24697  -0.00666   0.00000  -0.02384  -0.01705 -15.26402
    Y7        2.48826   0.00708   0.00000  -0.02139  -0.04384   2.44442
    Z7       -2.62281  -0.02393   0.00000  -0.01643  -0.03587  -2.65868
    X8      -15.04455  -0.01856   0.00000  -0.05005  -0.08513 -15.12968
    Y8        4.06265  -0.03246   0.00000  -0.01440  -0.01095   4.05170
    Z8        7.23047   0.00312   0.00000  -0.08437  -0.10737   7.12311
    X9      -13.92896   0.02161   0.00000   0.11804   0.07683 -13.85212
    Y9        5.41988   0.02707   0.00000   0.00007   0.00935   5.42923
    Z9        6.70483  -0.00968   0.00000   0.23874   0.21666   6.92149
         Item               Value     Threshold  Converged?
 Maximum Force            0.032456     0.000450     NO 
 RMS     Force            0.014455     0.000300     NO 
 Maximum Displacement     0.216659     0.001800     NO 
 RMS     Displacement     0.055541     0.001200     NO 
 Predicted change in Energy=-3.742944D-03
 Lowest energy point so far.  Saving SCF results.
 GradGradGradGradGradGradGradGradGradGradGradGradGradGradGradGradGradGrad

 Leave Link  103 at Tue Jan  5 14:22:03 2021, MaxMem=    33554432 cpu:         0.0
 (Enter /apps/applications/gaussian/G09.D01/2/default/g09/l202.exe)
                          Input orientation:                          
 ---------------------------------------------------------------------
 Center     Atomic      Atomic             Coordinates (Angstroms)
 Number     Number       Type             X           Y           Z
 ---------------------------------------------------------------------
      1          6           0       -7.144135    0.329058    2.012252
      2          6           0       -7.485056    0.691508    0.675303
      3          1           0       -6.069809    0.317438    2.225666
      4          1           0       -7.610029   -0.606249    2.349362
      5          1           0       -7.625826    1.160869    2.762707
      6          6           0       -7.804989    1.015433   -0.442670
      7          1           0       -8.077370    1.293533   -1.406912
      8          8           0       -8.006282    2.144066    3.769385
      9          1           0       -7.330228    2.873027    3.662694
 ---------------------------------------------------------------------
                    Distance matrix (angstroms):
                    1          2          3          4          5
     1  C    0.000000
     2  C    1.426544   0.000000
     3  H    1.095380   2.132247   0.000000
     4  H    1.097952   2.121854   1.800216   0.000000
     5  H    1.219475   2.144148   1.849589   1.814885   0.000000
     6  C    2.633339   1.207124   3.258537   3.234703   3.213672
     7  H    3.673121   2.246974   4.263647   4.235230   4.196095
     8  O    2.669283   3.457592   3.077267   3.120532   1.457678
     9  H    3.038152   3.702364   3.191355   3.729409   1.956743
                    6          7          8          9
     6  C    0.000000
     7  H    1.039853   0.000000
     8  O    4.365288   5.246191   0.000000
     9  H    4.531011   5.362269   0.999908   0.000000
 Symmetry turned off by external request.
 Stoichiometry    C3H5O(2)
 Framework group  C1[X(C3H5O)]
 Deg. of freedom    21
 Full point group                 C1      NOp   1
 Rotational constants (GHZ):     17.3883201      3.0066969      2.6299305
 Leave Link  202 at Tue Jan  5 14:22:03 2021, MaxMem=    33554432 cpu:         0.0
 (Enter /apps/applications/gaussian/G09.D01/2/default/g09/l301.exe)
 Standard basis: 3-21G (6D, 7F)
 Ernie: Thresh=  0.10000D-02 Tol=  0.10000D-05 Strict=F.
    46 basis functions,    75 primitive gaussians,    46 cartesian basis functions
    16 alpha electrons       15 beta electrons
       nuclear repulsion energy        95.3904092238 Hartrees.
 IExCor=  402 DFT=T Ex+Corr=B3LYP ExCW=0 ScaHFX=  0.200000
 ScaDFX=  0.800000  0.720000  1.000000  0.810000 ScalE2=  1.000000  1.000000
 IRadAn=      0 IRanWt=     -1 IRanGd=            0 ICorTp=0 IEmpDi=  4
 NAtoms=    9 NActive=    9 NUniq=    9 SFac= 1.00D+00 NAtFMM=   60 NAOKFM=F Big=F
 Integral buffers will be    131072 words long.
 Raffenetti 2 integral format.
 Two-electron integral symmetry is turned off.
 Leave Link  301 at Tue Jan  5 14:22:03 2021, MaxMem=    33554432 cpu:         0.0
 (Enter /apps/applications/gaussian/G09.D01/2/default/g09/l302.exe)
 NPDir=0 NMtPBC=     1 NCelOv=     1 NCel=       1 NClECP=     1 NCelD=      1
         NCelK=      1 NCelE2=     1 NClLst=     1 CellRange=     0.0.
 One-electron integrals computed using PRISM.
 NBasis=    46 RedAO= T EigKep=  1.21D-03  NBF=    46
 NBsUse=    46 1.00D-06 EigRej= -1.00D+00 NBFU=    46
 Precomputing XC quadrature grid using
 IXCGrd= 4 IRadAn=           0 IRanWt=          -1 IRanGd=           0 AccXCQ= 0.00D+00.
 Generated NRdTot=       0 NPtTot=           0 NUsed=           0 NTot=          32
 NSgBfM=    46    46    46    46    46 MxSgAt=     9 MxSgA2=     9.
 Leave Link  302 at Tue Jan  5 14:22:03 2021, MaxMem=    33554432 cpu:         0.1
 (Enter /apps/applications/gaussian/G09.D01/2/default/g09/l303.exe)
 DipDrv:  MaxL=1.
 Leave Link  303 at Tue Jan  5 14:22:03 2021, MaxMem=    33554432 cpu:         0.0
 (Enter /apps/applications/gaussian/G09.D01/2/default/g09/l401.exe)
 Initial guess from the checkpoint file:  "/nobackup/chmrsh/Scratch/Gau-43109.chk"
 B after Tr=     0.019095    0.137284    0.062231
         Rot=    0.999978    0.002491    0.002764   -0.005484 Ang=   0.76 deg.
 Guess basis will be translated and rotated to current coordinates.
 JPrj=2 DoOrth=T DoCkMO=T.
 Initial guess <Sx>= 0.0000 <Sy>= 0.0000 <Sz>= 0.5000 <S**2>= 0.7583 S= 0.5042
 Generating alternative initial guess.
 ExpMin= 1.83D-01 ExpMax= 3.22D+02 ExpMxC= 3.22D+02 IAcc=1 IRadAn=         1 AccDes= 0.00D+00
 Harris functional with IExCor=  402 and IRadAn=       1 diagonalized for initial guess.
 HarFok:  IExCor=  402 AccDes= 0.00D+00 IRadAn=         1 IDoV= 1 UseB2=F ITyADJ=14
 ICtDFT=  3500011 ScaDFX=  1.000000  1.000000  1.000000  1.000000
 FoFCou: FMM=F IPFlag=           0 FMFlag=      100000 FMFlg1=           0
         NFxFlg=           0 DoJE=T BraDBF=F KetDBF=T FulRan=T
         wScrn=  0.000000 ICntrl=     500 IOpCl=  0 I1Cent=   200000004 NGrid=           0
         NMat0=    1 NMatS0=      1 NMatT0=    0 NMatD0=    1 NMtDS0=    0 NMtDT0=    0
 Symmetry not used in FoFCou.
 Harris En= -191.339669991093    
 Leave Link  401 at Tue Jan  5 14:22:03 2021, MaxMem=    33554432 cpu:         0.2
 (Enter /apps/applications/gaussian/G09.D01/2/default/g09/l508.exe)
 Direct SCF.
 Tight linear equation convergence will be used.
 UB3LYP wavefunction.
 Quadratic Convergence SCF Method.
 Line search only if initial step raises energy.
 Two-electron integral symmetry not used.
 ReadGW:  IGet=1 IStart=         402 Next=         402 LGW=           0.
 Keep R1 and R2 ints in memory in canonical form, NReq=2054730.
 FoFCou: FMM=F IPFlag=           0 FMFlag=           0 FMFlg1=           0
         NFxFlg=           0 DoJE=F BraDBF=F KetDBF=F FulRan=T
         wScrn=  0.000000 ICntrl=     600 IOpCl=  0 I1Cent=           0 NGrid=           0
         NMat0=    1 NMatS0=   1081 NMatT0=    0 NMatD0=    1 NMtDS0=    0 NMtDT0=    0
 Symmetry not used in FoFCou.
 Iteration   1 EE= -191.321803826708                                    Grad=7.745D-02 Max rot=    1.3168 deg.
 Gradient too large for Newton-Raphson -- use scaled steepest descent instead.
 Alpha Gap=     0.535 HL deriv= 1.41D-03
  Beta Gap=     0.553 HL deriv= 4.28D-03
     ILin= 1 X=0.000D+00 Y=-1.913218038267D+02 DE= 0.00D+00 F= -8.53D-03
     ILin= 2 X=3.000D-01 Y=-1.913240122048D+02 DE=-2.21D-03 F= -6.19D-03
     ILin= 3 X=6.000D-01 Y=-1.913255163817D+02 DE=-3.71D-03 F= -3.84D-03
     ILin= 4 X=1.200D+00 Y=-1.913264025831D+02 DE=-4.60D-03 F=  8.89D-04
     Accept linear search using points  3 and  4.
     An  expanding polynomial of degree  4 produced  0.9890
 Iteration   2 EE= -191.326414296936     Delta-E=       -0.004610470228 Grad=2.925D-02 Max rot=    0.3863 deg.
 Gradient too large for Newton-Raphson -- use scaled steepest descent instead.
 Alpha Gap=     0.537 HL deriv= 2.11D-03
  Beta Gap=     0.563 HL deriv= 2.73D-03
     ILin= 1 X=0.000D+00 Y=-1.913264142969D+02 DE= 0.00D+00 F= -1.32D-03
     ILin= 2 X=5.000D-01 Y=-1.913268872888D+02 DE=-4.73D-04 F= -5.74D-04
     ILin= 3 X=1.100D+00 Y=-1.913269643460D+02 DE=-5.50D-04 F=  3.17D-04
     Accept linear search using points  2 and  3.
     An  expanding polynomial of degree  3 produced  0.8356
 Iteration   3 EE= -191.326996233033     Delta-E=       -0.000581936097 Grad=2.055D-02 Max rot=    0.3512 deg.
 Gradient too large for Newton-Raphson -- use scaled steepest descent instead.
 Alpha Gap=     0.536 HL deriv= 1.42D-03
  Beta Gap=     0.556 HL deriv= 2.94D-05
     ILin= 1 X=0.000D+00 Y=-1.913269962330D+02 DE= 0.00D+00 F= -7.24D-04
     ILin= 2 X=9.000D-01 Y=-1.913272024545D+02 DE=-2.06D-04 F=  2.67D-04
     Accept linear search using points  1 and  2.
     An  expanding polynomial of degree  2 produced  0.6323
 Iteration   4 EE= -191.327234317732     Delta-E=       -0.000238084699 Grad=1.423D-02 Max rot=    0.2060 deg.
 Gradient too large for Newton-Raphson -- use scaled steepest descent instead.
 Alpha Gap=     0.536 HL deriv= 1.45D-03
  Beta Gap=     0.563 HL deriv= 1.10D-03
     ILin= 1 X=0.000D+00 Y=-1.913272343177D+02 DE= 0.00D+00 F= -3.48D-04
     ILin= 2 X=7.000D-01 Y=-1.913273667604D+02 DE=-1.32D-04 F= -3.09D-05
     Reject lnstep minimum 1.332D+00 FVal=-1.913273869257D+02 Lims=  0.00D+00  7.00D-01
     ILin= 3 X=1.500D+00 Y=-1.913272469449D+02 DE=-1.26D-05 F=  3.30D-04
     An  expanding polynomial of degree  3 produced  0.7686
     Minimum is close to point  2 DX=  6.86D-02 DF= -1.06D-06 DXR=  8.93D-02 DFR=  8.04D-03 which will be used.
 Iteration   5 EE= -191.327366760385     Delta-E=       -0.000132442654 Grad=1.149D-02 Max rot=    0.1704 deg.
 Gradient too large for Newton-Raphson -- use scaled steepest descent instead.
 Alpha Gap=     0.536 HL deriv= 5.69D-04
  Beta Gap=     0.558 HL deriv= 4.64D-04
     ILin= 1 X=0.000D+00 Y=-1.913273667604D+02 DE= 0.00D+00 F= -2.27D-04
     ILin= 2 X=7.000D-01 Y=-1.913274472721D+02 DE=-8.05D-05 F= -3.32D-06
     Reject lnstep minimum 7.533D-01 FVal=-1.913274473918D+02 Lims=  0.00D+00  7.00D-01
     ILin= 3 X=1.400D+00 Y=-1.913273713484D+02 DE=-4.59D-06 F=  2.20D-04
     An  expanding polynomial of degree  3 produced  0.7103
     Minimum is close to point  2 DX=  1.03D-02 DF= -1.68D-08 DXR=  1.45D-02 DFR=  2.09D-04 which will be used.
 Iteration   6 EE= -191.327447272094     Delta-E=       -0.000080511709 Grad=9.482D-03 Max rot=    0.1279 deg.
 QCNR:  CnvC1=3.07D-09 CnvC2=3.07D-08
 LinEq1:  Iter=  0 NonCon=     1 RMS=5.97D-04 Max=9.19D-03 NDo=     1
 AX will form     1 AO Fock derivatives at one time.
 LinEq1:  Iter=  1 NonCon=     1 RMS=3.92D-04 Max=8.50D-03 NDo=     1
 LinEq1:  Iter=  2 NonCon=     1 RMS=1.86D-04 Max=2.79D-03 NDo=     1
 LinEq1:  Iter=  3 NonCon=     1 RMS=1.08D-04 Max=1.92D-03 NDo=     1
 LinEq1:  Iter=  4 NonCon=     1 RMS=8.93D-05 Max=1.42D-03 NDo=     1
 LinEq1:  Iter=  5 NonCon=     1 RMS=1.03D-04 Max=1.13D-03 NDo=     1
 LinEq1:  Iter=  6 NonCon=     1 RMS=4.42D-05 Max=3.30D-04 NDo=     1
 LinEq1:  Iter=  7 NonCon=     1 RMS=2.39D-05 Max=2.14D-04 NDo=     1
 LinEq1:  Iter=  8 NonCon=     1 RMS=9.96D-06 Max=1.19D-04 NDo=     1
 LinEq1:  Iter=  9 NonCon=     1 RMS=2.92D-06 Max=3.00D-05 NDo=     1
 LinEq1:  Iter= 10 NonCon=     1 RMS=7.55D-07 Max=7.21D-06 NDo=     1
 LinEq1:  Iter= 11 NonCon=     1 RMS=1.87D-07 Max=1.59D-06 NDo=     1
 LinEq1:  Iter= 12 NonCon=     1 RMS=4.30D-08 Max=4.42D-07 NDo=     1
 LinEq1:  Iter= 13 NonCon=     1 RMS=1.07D-08 Max=1.27D-07 NDo=     1
 LinEq1:  Iter= 14 NonCon=     0 RMS=1.78D-09 Max=1.26D-08 NDo=     1
 Linear equations converged to 3.074D-09 3.074D-08 after    14 iterations.
 Angle between quadratic step and gradient=  56.82 degrees.
     ILin= 1 X=0.000D+00 Y=-1.913274472721D+02 DE= 0.00D+00 F= -3.33D-04
     ILin= 2 X=1.000D+00 Y=-1.913276138184D+02 DE=-1.67D-04 F= -2.14D-07
     Reject lnstep minimum 1.001D+00 FVal=-1.913276138185D+02 Lims=  0.00D+00  1.00D+00
     ILin= 3 X=2.000D+00 Y=-1.913274478935D+02 DE=-6.21D-07 F=  3.32D-04
     An  expanding polynomial of degree  3 produced  1.0009
     Minimum is close to point  2 DX=  9.35D-04 DF= -1.45D-10 DXR=  9.34D-04 DFR=  8.72D-07 which will be used.
 Iteration   7 EE= -191.327613818408     Delta-E=       -0.000166546314 Grad=1.389D-04 Max rot=    0.0019 deg.
 QCNR:  CnvC1=1.39D-09 CnvC2=1.39D-08
 LinEq1:  Iter=  0 NonCon=     1 RMS=9.95D-06 Max=2.37D-04 NDo=     1
 LinEq1:  Iter=  1 NonCon=     1 RMS=5.00D-06 Max=5.22D-05 NDo=     1
 LinEq1:  Iter=  2 NonCon=     1 RMS=1.51D-06 Max=2.14D-05 NDo=     1
 LinEq1:  Iter=  3 NonCon=     1 RMS=2.14D-06 Max=3.30D-05 NDo=     1
 LinEq1:  Iter=  4 NonCon=     1 RMS=1.40D-06 Max=2.32D-05 NDo=     1
 LinEq1:  Iter=  5 NonCon=     1 RMS=8.95D-07 Max=1.22D-05 NDo=     1
 LinEq1:  Iter=  6 NonCon=     1 RMS=3.74D-07 Max=4.01D-06 NDo=     1
 LinEq1:  Iter=  7 NonCon=     1 RMS=9.50D-08 Max=8.99D-07 NDo=     1
 LinEq1:  Iter=  8 NonCon=     1 RMS=3.18D-08 Max=3.15D-07 NDo=     1
 LinEq1:  Iter=  9 NonCon=     1 RMS=1.45D-08 Max=1.38D-07 NDo=     1
 LinEq1:  Iter= 10 NonCon=     1 RMS=6.74D-09 Max=5.98D-08 NDo=     1
 LinEq1:  Iter= 11 NonCon=     1 RMS=1.61D-09 Max=1.41D-08 NDo=     1
 LinEq1:  Iter= 12 NonCon=     0 RMS=3.66D-10 Max=2.59D-09 NDo=     1
 Linear equations converged to 1.389D-09 1.389D-08 after    12 iterations.
 Angle between quadratic step and gradient=  62.95 degrees.
     ILin= 1 X=0.000D+00 Y=-1.913276138184D+02 DE= 0.00D+00 F= -2.91D-08
     ILin= 2 X=1.000D+00 Y=-1.913276138330D+02 DE=-1.46D-08 F=  7.63D-13
     Accept linear search using points  1 and  2.
     An  expanding polynomial of degree  2 produced  1.0000
     Minimum is close to point  2 DX= -2.62D-05 DF=  0.00D+00 DXR=  2.62D-05 DFR=  0.00D+00 which will be used.
 Iteration   8 EE= -191.327613832969     Delta-E=       -0.000000014561 Grad=2.140D-08 Max rot=    0.0000 deg.
 Rotation gradient small -- convergence achieved.
 SCF Done:  E(UB3LYP) =  -191.327613833     a.u. after    8 cycles
            Convg  =    0.2140D-07                    43 Fock formations.
              S**2 =  0.7577                  -V/T =  2.0086
 <Sx>= 0.0000 <Sy>= 0.0000 <Sz>= 0.5000 <S**2>= 0.7577 S= 0.5039
 <L.S>= 0.000000000000E+00
 Annihilation of the first spin contaminant:
 S**2 before annihilation     0.7577,   after     0.7500
 Leave Link  508 at Tue Jan  5 14:22:31 2021, MaxMem=    33554432 cpu:        27.5
 (Enter /apps/applications/gaussian/G09.D01/2/default/g09/l801.exe)
 DoSCS=F DFT=T ScalE2(SS,OS)=  1.000000  1.000000
 Range of M.O.s used for correlation:     1    46
 NBasis=    46 NAE=    16 NBE=    15 NFC=     0 NFV=     0
 NROrb=     46 NOA=    16 NOB=    15 NVA=    30 NVB=    31
 Leave Link  801 at Tue Jan  5 14:22:31 2021, MaxMem=    33554432 cpu:         0.0
 (Enter /apps/applications/gaussian/G09.D01/2/default/g09/l1101.exe)
 Using compressed storage, NAtomX=     9.
 Will process     10 centers per pass.
 Leave Link 1101 at Tue Jan  5 14:22:31 2021, MaxMem=    33554432 cpu:         0.0
 (Enter /apps/applications/gaussian/G09.D01/2/default/g09/l1102.exe)
 Symmetrizing basis deriv contribution to polar:
 IMax=3 JMax=2 DiffMx= 0.00D+00
 Leave Link 1102 at Tue Jan  5 14:22:31 2021, MaxMem=    33554432 cpu:         0.0
 (Enter /apps/applications/gaussian/G09.D01/2/default/g09/l1110.exe)
 Forming Gx(P) for the SCF density, NAtomX=     9.
 Integral derivatives from FoFJK, PRISM(SPDF).
 Do as many integral derivatives as possible in FoFJK.
 G2DrvN: MDV=      33554256.
 G2DrvN: will do    10 centers at a time, making    1 passes.
 Calling FoFCou, ICntrl=  3107 FMM=F I1Cent=   0 AccDes= 0.00D+00.
 FoFJK:  IHMeth= 1 ICntrl=    3107 DoSepK=F KAlg= 0 I1Cent=   0 FoldK=F
 IRaf=         0 NMat=   1 IRICut=       1 DoRegI=T DoRafI=F ISym2E= 0.
 FoFCou: FMM=F IPFlag=           0 FMFlag=      100000 FMFlg1=           0
         NFxFlg=           0 DoJE=F BraDBF=F KetDBF=F FulRan=T
         wScrn=  0.000000 ICntrl=    3107 IOpCl=  1 I1Cent=           0 NGrid=           0
         NMat0=    1 NMatS0=      1 NMatT0=    0 NMatD0=    1 NMtDS0=    0 NMtDT0=    0
 Symmetry not used in FoFCou.
 End of G2Drv F.D. properties file   721 does not exist.
 End of G2Drv F.D. properties file   722 does not exist.
 End of G2Drv F.D. properties file   788 does not exist.
 Leave Link 1110 at Tue Jan  5 14:22:41 2021, MaxMem=    33554432 cpu:         9.5
 (Enter /apps/applications/gaussian/G09.D01/2/default/g09/l1002.exe)
 Minotr:  UHF open shell wavefunction.
          IDoAtm=111111111
          Direct CPHF calculation.
          Differentiating once with respect to electric field.
                with respect to dipole field.
          Differentiating once with respect to nuclear coordinates.
          Requested convergence is 1.0D-08 RMS, and 1.0D-07 maximum.
          Secondary convergence is 1.0D-12 RMS, and 1.0D-12 maximum.
          NewPWx=T KeepS1=F KeepF1=F KeepIn=T MapXYZ=F SortEE=F KeepMc=T.
          MDV=      33554246 using IRadAn=       2.
 Generate precomputed XC quadrature information.
 Keep R1 and R2 ints in memory in canonical form, NReq=2035827.
 FoFCou: FMM=F IPFlag=           0 FMFlag=           0 FMFlg1=           0
         NFxFlg=           0 DoJE=F BraDBF=F KetDBF=F FulRan=T
         wScrn=  0.000000 ICntrl=     600 IOpCl=  0 I1Cent=           0 NGrid=           0
         NMat0=    1 NMatS0=   1081 NMatT0=    0 NMatD0=    1 NMtDS0=    0 NMtDT0=    0
 Symmetry not used in FoFCou.
          Solving linear equations simultaneously, MaxMat=       0.
          There are    30 degrees of freedom in the 1st order CPHF.  IDoFFX=6 NUNeed=     3.
     27 vectors produced by pass  0 Test12= 3.15D-15 3.33D-09 XBig12= 2.11D+02 9.13D+00.
 AX will form    27 AO Fock derivatives at one time.
     27 vectors produced by pass  1 Test12= 3.15D-15 3.33D-09 XBig12= 3.54D+01 1.16D+00.
     27 vectors produced by pass  2 Test12= 3.15D-15 3.33D-09 XBig12= 5.08D-01 1.39D-01.
     27 vectors produced by pass  3 Test12= 3.15D-15 3.33D-09 XBig12= 1.14D-03 6.08D-03.
     27 vectors produced by pass  4 Test12= 3.15D-15 3.33D-09 XBig12= 5.31D-06 5.06D-04.
     25 vectors produced by pass  5 Test12= 3.15D-15 3.33D-09 XBig12= 1.35D-08 1.61D-05.
      5 vectors produced by pass  6 Test12= 3.15D-15 3.33D-09 XBig12= 2.33D-11 7.46D-07.
      3 vectors produced by pass  7 Test12= 3.15D-15 3.33D-09 XBig12= 3.57D-14 2.85D-08.
 InvSVY:  IOpt=1 It=  1 EMax= 1.95D-14
 Solved reduced A of dimension   168 with    30 vectors.
 FullF1:  Do perturbations    1 to     3.
 Isotropic polarizability for W=    0.000000       41.36 Bohr**3.
 End of Minotr F.D. properties file   721 does not exist.
 End of Minotr F.D. properties file   722 does not exist.
 End of Minotr F.D. properties file   788 does not exist.
 Leave Link 1002 at Tue Jan  5 14:23:03 2021, MaxMem=    33554432 cpu:         8.6
 (Enter /apps/applications/gaussian/G09.D01/2/default/g09/l701.exe)
 Compute integral second derivatives.
 ... and contract with generalized density number  0.
 Leave Link  701 at Tue Jan  5 14:23:03 2021, MaxMem=    33554432 cpu:         0.1
 (Enter /apps/applications/gaussian/G09.D01/2/default/g09/l702.exe)
 L702 exits ... SP integral derivatives will be done elsewhere.
 Leave Link  702 at Tue Jan  5 14:23:03 2021, MaxMem=    33554432 cpu:         0.0
 (Enter /apps/applications/gaussian/G09.D01/2/default/g09/l703.exe)
 Compute integral second derivatives, UseDBF=F ICtDFT=           0.
 Integral derivatives from FoFJK, PRISM(SPDF).
 Calling FoFJK, ICntrl=    100127 FMM=F ISym2X=0 I1Cent= 0 IOpClX= 1 NMat=1 NMatS=1 NMatT=0.
 FoFJK:  IHMeth= 1 ICntrl=  100127 DoSepK=F KAlg= 0 I1Cent=   0 FoldK=F
 IRaf=         0 NMat=   1 IRICut=       1 DoRegI=T DoRafI=F ISym2E= 0.
 FoFCou: FMM=F IPFlag=           0 FMFlag=      100000 FMFlg1=         800
         NFxFlg=           0 DoJE=F BraDBF=F KetDBF=F FulRan=T
         wScrn=  0.000000 ICntrl=  100127 IOpCl=  1 I1Cent=           0 NGrid=           0
         NMat0=    1 NMatS0=      1 NMatT0=    0 NMatD0=    1 NMtDS0=    0 NMtDT0=    0
 Symmetry not used in FoFCou.
 Leave Link  703 at Tue Jan  5 14:23:11 2021, MaxMem=    33554432 cpu:         8.2
 (Enter /apps/applications/gaussian/G09.D01/2/default/g09/l716.exe)
 Dipole        = 5.49243751D-01 2.13298961D-01-1.67886210D-01
 Polarizability= 2.11246278D+01-3.03201972D+00 3.25059399D+01
                 1.73751272D+00 1.09512217D+01 7.04377814D+01
 -------------------------------------------------------------------
 Center     Atomic                   Forces (Hartrees/Bohr)
 Number     Number              X              Y              Z
 -------------------------------------------------------------------
      1        6          -0.007004374    0.013155032    0.022661053
      2        6           0.000328066   -0.001786332   -0.005255077
      3        1          -0.000351229   -0.000074638   -0.002124849
      4        1           0.000813600    0.001049612   -0.001701651
      5        1           0.005422666   -0.010197032   -0.006706444
      6        6           0.004150172   -0.003289162    0.012897195
      7        1          -0.004765298    0.004786344   -0.016884160
      8        8          -0.005339363   -0.009252305   -0.000580846
      9        1           0.006745759    0.005608482   -0.002305222
 -------------------------------------------------------------------
 Cartesian Forces:  Max     0.022661053 RMS     0.007878748
 Force constants in Cartesian coordinates: 
                1             2             3             4             5 
      1  0.521888D+00
      2  0.659265D-01  0.412779D+00
      3  0.675425D-01 -0.122522D+00  0.438330D+00
      4 -0.849949D-01  0.142029D-01 -0.484601D-01  0.188288D+00
      5  0.112753D-01 -0.800745D-01  0.512096D-01 -0.897945D-01  0.188322D+00
      6 -0.644444D-01  0.787330D-01 -0.250446D+00  0.324310D+00 -0.332577D+00
      7 -0.302900D+00 -0.282231D-02 -0.497606D-01 -0.291355D-02  0.168011D-02
      8  0.264963D-02 -0.403254D-01  0.992435D-02  0.801924D-02 -0.171843D-02
      9 -0.448758D-01  0.534732D-02 -0.506525D-01 -0.384495D-01  0.274247D-02
     10 -0.931269D-01 -0.968609D-01  0.254361D-01  0.428804D-02  0.947467D-02
     11 -0.101492D+00 -0.232796D+00  0.733288D-01  0.546410D-03 -0.414925D-02
     12  0.275420D-01  0.660246D-01 -0.627479D-01  0.128973D-01  0.339524D-01
     13 -0.486002D-01  0.921930D-02  0.238063D-03  0.377579D-02 -0.971124D-02
     14  0.467269D-03 -0.427502D-01  0.202276D-01 -0.116389D-01  0.109507D-01
     15  0.161126D-03  0.710032D-03 -0.165346D-01  0.346706D-02 -0.118335D-01
     16  0.712892D-02 -0.484276D-03 -0.738201D-02 -0.111643D+00  0.749573D-01
     17  0.544992D-03  0.731341D-02  0.781032D-02  0.750667D-01 -0.113694D+00
     18 -0.339781D-02  0.577341D-03 -0.204624D-01 -0.258127D+00  0.261492D+00
     19  0.540271D-02  0.659940D-03 -0.116296D-02  0.422624D-02 -0.344342D-03
     20  0.753520D-03  0.510154D-02  0.131848D-02 -0.563179D-03  0.428807D-02
     21 -0.129212D-02  0.109173D-02  0.769015D-03  0.148449D-02 -0.131893D-02
     22 -0.641119D-02  0.894446D-02  0.160667D-01 -0.139626D-02  0.341186D-02
     23  0.181849D-01 -0.264535D-01 -0.376831D-01  0.355225D-02 -0.409763D-02
     24  0.182221D-01 -0.286726D-01 -0.364957D-01  0.326141D-02 -0.372702D-02
     25  0.161337D-02  0.121443D-02 -0.251781D-02  0.370001D-03 -0.949097D-03
     26  0.169026D-02 -0.279371D-02 -0.361450D-02  0.609062D-03  0.173018D-03
     27  0.542467D-03 -0.128984D-02 -0.176007D-02 -0.382798D-03  0.602468D-04
                6             7             8             9            10 
      6  0.126548D+01
      7 -0.488976D-02  0.329715D+00
      8 -0.461212D-03 -0.760984D-03  0.434559D-01
      9 -0.137475D-01  0.549173D-01 -0.618236D-02  0.631083D-01
     10 -0.116045D-03 -0.126006D-01 -0.295254D-01  0.911610D-02  0.992170D-01
     11  0.368007D-02  0.158773D-02  0.192986D-02 -0.133901D-02  0.107128D+00
     12 -0.192713D-01 -0.161933D-02 -0.516705D-02  0.193187D-02 -0.311627D-01
     13  0.770867D-02 -0.122026D-01  0.196991D-01  0.169822D-01  0.183723D-02
     14 -0.255991D-01  0.112631D-02 -0.647295D-02 -0.249515D-02  0.127407D-01
     15 -0.534471D-01  0.291662D-03 -0.178732D-02 -0.102005D-02  0.156273D-02
     16 -0.258998D+00  0.970715D-04  0.191249D-03  0.131989D-02  0.648369D-04
     17  0.262719D+00 -0.494206D-03  0.882663D-03  0.438752D-03 -0.282731D-03
     18 -0.950366D+00  0.135787D-02  0.167660D-02 -0.630902D-03 -0.236548D-02
     19  0.644190D-03  0.771491D-04 -0.260500D-03  0.108467D-02 -0.237933D-03
     20 -0.114014D-02 -0.181091D-05 -0.719996D-04  0.101127D-03 -0.266742D-03
     21  0.888390D-02 -0.225622D-04  0.872291D-04 -0.285706D-03 -0.229810D-04
     22 -0.480832D-02  0.661289D-03 -0.542698D-04  0.274218D-04  0.112655D-02
     23  0.125339D-01 -0.711170D-03  0.221467D-02  0.133713D-02 -0.222322D-02
     24  0.130543D-01 -0.569403D-04  0.136444D-02  0.649952D-03 -0.234922D-02
     25  0.593854D-03  0.662713D-04  0.419293D-04 -0.122232D-03 -0.568183D-03
     26  0.211164D-02  0.396340D-03  0.105705D-03  0.497102D-04 -0.184023D-03
     27 -0.141501D-03 -0.217712D-03  0.545329D-03  0.646603D-03 -0.985555D-04
               11            12            13            14            15 
     11  0.254974D+00
     12 -0.774754D-01  0.781775D-01
     13 -0.702885D-02 -0.537131D-02  0.628150D-01
     14 -0.238004D-01 -0.181883D-01  0.653231D-02  0.507277D-01
     15  0.307543D-03 -0.400158D-03 -0.115491D-02 -0.110140D-01  0.437847D-01
     16 -0.819148D-03 -0.944325D-03 -0.122770D-02  0.490251D-02  0.208275D-02
     17  0.381409D-03 -0.103811D-02  0.312730D-02 -0.437070D-02 -0.187612D-02
     18 -0.477165D-03  0.850613D-05 -0.524530D-02  0.113894D-01  0.994132D-02
     19  0.601426D-04 -0.610146D-03 -0.126642D-03  0.118823D-03 -0.277338D-03
     20  0.934237D-04 -0.942958D-03  0.115683D-03 -0.205325D-03  0.521108D-03
     21  0.250883D-04 -0.904079D-04  0.616295D-04  0.136961D-03  0.434533D-03
     22 -0.330894D-03 -0.125329D-02 -0.652082D-02 -0.159703D-01 -0.963919D-02
     23  0.255087D-02  0.236894D-02 -0.116757D-01  0.160476D-01  0.177989D-01
     24  0.138033D-02  0.226238D-02 -0.644616D-02  0.297520D-01  0.136214D-01
     25  0.349374D-03  0.521835D-03  0.249931D-03  0.172123D-02  0.350610D-02
     26  0.816387D-03  0.465930D-03 -0.102779D-01 -0.126305D-03  0.717339D-02
     27  0.569786D-03  0.129406D-03 -0.677287D-02 -0.420943D-02  0.361988D-02
               16            17            18            19            20 
     16  0.153544D+00
     17 -0.109021D+00  0.156776D+00
     18  0.378741D+00 -0.385516D+00  0.138319D+01
     19 -0.486814D-01  0.321479D-01 -0.112836D+00  0.393349D-01
     20  0.323128D-01 -0.496348D-01  0.115687D+00 -0.323495D-01  0.404154D-01
     21 -0.113397D+00  0.115727D+00 -0.417559D+00  0.113227D+00 -0.115607D+00
     22  0.997292D-03 -0.150625D-02  0.276158D-02  0.221158D-05  0.193926D-04
     23 -0.190242D-02  0.227519D-02 -0.453420D-02  0.387861D-05 -0.154088D-04
     24 -0.159447D-02  0.169542D-02 -0.447566D-02 -0.439606D-04  0.794205D-04
     25 -0.279981D-03  0.417759D-03 -0.887523D-03  0.276763D-05 -0.201950D-04
     26 -0.136525D-03  0.704226D-04 -0.294396D-03 -0.363553D-04  0.290795D-04
[...]
 Sum of electronic and thermal Free Energies=         -191.296294
 
                     E (Thermal)             CV                S
                      KCal/Mol        Cal/Mol-Kelvin    Cal/Mol-Kelvin
 Total                   42.489             18.725             75.342
 Electronic               0.000              0.000              1.377
 Translational            0.889              2.981             38.044
 Rotational               0.889              2.981             25.079
 Vibrational             40.711             12.763             10.842
 Vibration     1          0.601              1.958              3.728
 Vibration     2          0.623              1.888              2.516
 Vibration     3          0.721              1.593              1.206
 Vibration     4          0.757              1.493              1.003
 Vibration     5          0.766              1.471              0.964
                       Q            Log10(Q)             Ln(Q)
 Total Bot       0.771059D-15        -15.112912        -34.798767
 Total V=0       0.244460D+14         13.388207         30.827486
 Vib (Bot)       0.337217D-27        -27.472090        -63.256825
 Vib (Bot)    1  0.236676D+01          0.374155          0.861523
 Vib (Bot)    2  0.124008D+01          0.093449          0.215174
 Vib (Bot)    3  0.543672D+00         -0.264663         -0.609410
 Vib (Bot)    4  0.461354D+00         -0.335966         -0.773590
 Vib (Bot)    5  0.446052D+00         -0.350614         -0.807320
 Vib (V=0)       0.106913D+02          1.029029          2.369427
 Vib (V=0)    1  0.291900D+01          0.465234          1.071241
 Vib (V=0)    2  0.183708D+01          0.264129          0.608179
 Vib (V=0)    3  0.123863D+01          0.092943          0.214009
 Vib (V=0)    4  0.118033D+01          0.072003          0.165793
 Vib (V=0)    5  0.117005D+01          0.068203          0.157044
 Electronic      0.200000D+01          0.301030          0.693147
 Translational   0.169300D+08          7.228656         16.644596
 Rotational      0.675292D+05          4.829491         11.120315
 
                                                    Gaussian input prepared by AS
 E
                                                             IR Spectrum
 
      3   3       3 3                               2                       1 1    1       1 1                                       
      4   3       1 0                               2                       5 5    3       1 0   9   8    77  6      43 3      1     
      9   6       4 8                               0                       6 0    6       3 8   8   5    10  2      08 4      6 8   
      4   4       4 3                               2                       0 2    0       9 0   8   5    71  7      09 1      3 7   
 
      X   X       X X                               X                       X X    X       X X   X   X    XX  X      XX X      X X   
      X                                             X                       X      X         X   X   X    XX  X      XX        X     
      X                                                                     X      X                 X    XX  X      X         X     
      X                                                                     X      X                 X    XX  X                X     
      X                                                                     X                        X    XX  X                X     
      X                                                                     X                        X    XX  X                X     
                                                                            X                        X    XX  X                X     
                                                                            X                        X     X  X                X     
                                                                            X                        X     X  X                X     
                                                                            X                        X        X                X     
                                                                            X                        X        X                X     
                                                                            X                        X        X                X     
                                                                            X                        X        X                      
                                                                            X                                 X                      
                                                                            X                                 X                      
                                                                            X                                 X                      
                                                                                                              X                      
                                                                                                              X                      
                                                                                                              X                      
                                                                                                              X                      
 
 -------------------------------------------------------------------
 Center     Atomic                   Forces (Hartrees/Bohr)
 Number     Number              X              Y              Z
 -------------------------------------------------------------------
      1        6          -0.000003340   -0.000001699    0.000000097
      2        6          -0.000000875    0.000000189   -0.000000109
      3        1          -0.000001317   -0.000002721    0.000000337
      4        1          -0.000003220    0.000000060   -0.000000216
      5        1          -0.000000010    0.000000205   -0.000000111
      6        6           0.000001366    0.000001826   -0.000000172
      7        1           0.000001335    0.000001340   -0.000000119
      8        8           0.000004063    0.000002514   -0.000000420
      9        1           0.000001997   -0.000001714    0.000000713
 -------------------------------------------------------------------
 Cartesian Forces:  Max     0.000004063 RMS     0.000001654
 Force constants in Cartesian coordinates: 
                1             2             3             4             5 
      1  0.506474D+00
      2  0.857573D-01  0.404635D+00
      3  0.723337D-01 -0.122880D+00  0.408940D+00
      4 -0.859040D-01  0.972164D-02 -0.392658D-01  0.175527D+00
      5  0.747796D-02 -0.777124D-01  0.382262D-01 -0.719119D-01  0.173988D+00
      6 -0.629344D-01  0.723582D-01 -0.229166D+00  0.289556D+00 -0.299858D+00
      7 -0.305896D+00 -0.204084D-01 -0.558410D-01 -0.288276D-02  0.116772D-02
      8 -0.133863D-01 -0.390996D-01  0.976330D-02  0.723036D-02  0.142178D-03
      9 -0.493871D-01  0.381465D-02 -0.499158D-01 -0.384375D-01  0.965958D-03
     10 -0.844969D-01 -0.935838D-01  0.214684D-01  0.420129D-02  0.862874D-02
     11 -0.997270D-01 -0.244713D+00  0.806573D-01  0.387953D-03 -0.264014D-02
     12  0.251349D-01  0.710357D-01 -0.617290D-01  0.111975D-01  0.342017D-01
     13 -0.381170D-01  0.772287D-02 -0.248100D-02  0.445321D-02 -0.987491D-02
     14 -0.101803D-01 -0.153978D-01  0.411822D-01 -0.133817D-01  0.113819D-01
     15 -0.137029D-01  0.214655D-01  0.208344D-01  0.147356D-02 -0.622513D-02
     16  0.775196D-02 -0.441008D-03 -0.943202D-02 -0.985169D-01  0.623671D-01
     17  0.913016D-04  0.749025D-02  0.980157D-02  0.625309D-01 -0.103333D+00
     18 -0.242313D-02  0.563618D-03 -0.287268D-01 -0.230120D+00  0.240112D+00
     19  0.525663D-02  0.789850D-03 -0.120310D-02  0.383769D-02 -0.563674D-03
     20  0.783536D-03  0.500208D-02  0.118032D-02 -0.303352D-03  0.369275D-02
     21 -0.103805D-02  0.885429D-03  0.723376D-03  0.125389D-02 -0.146292D-02
     22 -0.800930D-02  0.919539D-02  0.184159D-01 -0.892279D-03  0.363236D-02
     23  0.280839D-01 -0.374420D-01 -0.544231D-01  0.486484D-02 -0.574682D-02
     24  0.318606D-01 -0.461142D-01 -0.607589D-01  0.490577D-02 -0.596315D-02
     25  0.294065D-02  0.124603D-02 -0.399510D-02  0.176480D-03 -0.923365D-03
     26  0.109945D-02 -0.276299D-02 -0.350773D-02  0.861243D-03  0.228366D-03
     27  0.156305D-03 -0.112872D-02 -0.200592D-03 -0.563348D-03  0.361299D-05
                6             7             8             9            10 
      6  0.123403D+01
      7 -0.409354D-02  0.330724D+00
      8 -0.162588D-02  0.180690D-01  0.422756D-01
      9 -0.156246D-01  0.608039D-01 -0.343555D-02  0.643837D-01
     10  0.804577D-03 -0.108016D-01 -0.296268D-01  0.946287D-02  0.897772D-01
     11  0.217224D-02  0.117039D-02  0.556774D-03 -0.591868D-03  0.103508D+00
     12 -0.198110D-01 -0.183605D-02 -0.563528D-02  0.252431D-02 -0.292631D-01
     13  0.914003D-02 -0.126030D-01  0.170160D-01  0.148325D-01  0.114998D-02
     14 -0.322504D-01  0.135415D-02 -0.722492D-02 -0.297081D-02  0.143485D-01
     15 -0.582643D-01  0.108040D-02 -0.408347D-02 -0.243602D-02  0.394172D-02
     16 -0.230926D+00 -0.806107D-05  0.355634D-03  0.134685D-02  0.969119D-04
     17  0.241363D+00 -0.430958D-03  0.645100D-03  0.365247D-03 -0.113852D-03
     18 -0.937809D+00  0.963205D-03  0.231516D-02 -0.452914D-03 -0.286950D-02
     19  0.975793D-03  0.736478D-04 -0.261066D-03  0.108072D-02 -0.243379D-03
     20 -0.687314D-04 -0.336044D-05 -0.120430D-03  0.160099D-03 -0.254634D-03
     21  0.878064D-02 -0.304000D-04  0.709050D-04 -0.241984D-03 -0.203184D-04
     22 -0.337905D-02  0.143060D-02  0.249496D-03  0.189318D-03  0.115001D-02
     23  0.158205D-01 -0.154380D-02  0.276699D-02  0.166852D-02 -0.288971D-02
     24  0.180172D-01 -0.872590D-03  0.216980D-02  0.110847D-02 -0.367336D-02
     25  0.856935D-03 -0.372743D-04  0.353676D-03  0.108292D-03 -0.833474D-03
     26  0.208876D-02  0.625227D-03  0.582563D-04  0.237573D-04 -0.167532D-04
     27 -0.155626D-03 -0.173938D-03  0.461019D-03  0.654817D-03  0.148758D-03
               11            12            13            14            15 
     11  0.265959D+00
     12 -0.831714D-01  0.786582D-01
     13 -0.480967D-02 -0.295381D-02  0.577746D-01
     14 -0.237941D-01 -0.177678D-01  0.181565D-01  0.349972D-01
     15 -0.188228D-02 -0.271910D-02  0.696091D-02 -0.296550D-01  0.122237D-01
     16 -0.731519D-03 -0.860456D-03 -0.165372D-02  0.586172D-02  0.322153D-02
     17  0.973622D-04 -0.103035D-02  0.337160D-02 -0.543226D-02 -0.352360D-02
     18 -0.640183D-04 -0.177955D-03 -0.595808D-02  0.146491D-01  0.143361D-01
     19  0.325956D-04 -0.572492D-03 -0.101596D-03  0.106166D-03 -0.209502D-03
     20  0.596029D-04 -0.977765D-03  0.939855D-04 -0.214578D-03  0.329366D-03
     21  0.166298D-04 -0.122942D-03  0.847305D-04  0.108286D-03  0.286618D-03
     22 -0.471196D-03 -0.166728D-02 -0.945364D-02 -0.186212D-01 -0.998192D-02
     23  0.359796D-02  0.297233D-02 -0.176012D-01  0.108842D-01  0.139784D-01
     24  0.249452D-02  0.364932D-02 -0.932975D-02  0.386017D-01  0.134667D-01
     25  0.640194D-03  0.820813D-03 -0.144880D-02  0.235601D-02  0.721623D-02
     26  0.876638D-03  0.372745D-03 -0.140752D-01 -0.519958D-02  0.959616D-02
     27  0.368794D-03 -0.271817D-03 -0.102956D-01 -0.118974D-01  0.227189D-02
               16            17            18            19            20 
     16  0.139397D+00
     17 -0.876912D-01  0.145078D+00
     18  0.330064D+00 -0.342663D+00  0.133776D+01
     19 -0.476341D-01  0.232746D-01 -0.910880D-01  0.388203D-01
     20  0.230327D-01 -0.476860D-01  0.917475D-01 -0.233525D-01  0.392217D-01
     21 -0.912735D-01  0.929153D-01 -0.378630D+00  0.911018D-01 -0.924664D-01
     22  0.767787D-03 -0.142807D-02  0.230513D-02  0.000000D+00  0.149451D-04
     23 -0.253226D-02  0.307823D-02 -0.631243D-02  0.514628D-05  0.265847D-05
     24 -0.230515D-02  0.267382D-02 -0.659141D-02 -0.715411D-04  0.107531D-03
     25 -0.200678D-03  0.395672D-03 -0.874108D-03 -0.896065D-05 -0.112925D-04
     26 -0.221097D-03  0.627571D-04 -0.346954D-03 -0.311519D-04  0.422179D-04
     27  0.164499D-03  0.983926D-04  0.289443D-03 -0.136333D-04 -0.119476D-04
               21            22            23            24            25 
     21  0.369185D+00
     22 -0.859078D-04  0.195041D+00
     23  0.175079D-04  0.185013D+00  0.237764D+00
     24  0.133507D-03 -0.758352D-01 -0.334421D-01  0.668567D-01
     25  0.782731D-05 -0.180034D+00 -0.193400D+00  0.553213D-01  0.179446D+00
     26 -0.847500D-04 -0.177584D+00 -0.214905D+00  0.394721D-01  0.189343D+00
     27 -0.113998D-03  0.700391D-01  0.597203D-01 -0.358816D-01 -0.594622D-01
               26            27 
     26  0.221600D+00
     27 -0.476141D-01  0.334075D-01
 Leave Link  716 at Tue Jan  5 14:28:13 2021, MaxMem=    33554432 cpu:         0.0
 (Enter /apps/applications/gaussian/G09.D01/2/default/g09/l9999.exe)
 1\1\GINC-DC1S0B3B\Freq\UB3LYP\3-21G\C3H5O1(2)\CHMRSH\05-Jan-2021\0\\#P
  b3lyp/3-21G scf=qc opt(calcall, ts, noeigentest, cartesian,maxcycle=1
 00) NoSymm\\Gaussian input prepared by ASE\\0,2\C,-7.1759747258,0.3833
 858748,2.0371724147\C,-7.5021783762,0.7047358104,0.6822455986\H,-6.107
 0348614,0.4366211955,2.2608366127\H,-7.6012173718,-0.566246706,2.37805
 70118\H,-7.7176210559,1.1894703319,2.8097692077\C,-7.795809339,1.01515
 38454,-0.4508132186\H,-8.0523007941,1.2748851747,-1.4477362525\O,-7.93
 50724857,2.0280053986,3.7762494546\H,-7.2665141141,2.7526716125,3.5620
 057674\\Version=ES64L-G09RevD.01\HF=-191.3291509\S2=0.760606\S2-1=0.\S
 2A=0.750066\RMSD=0.000e+00\RMSF=1.654e-06\ZeroPoint=0.0619634\Thermal=
 0.06771\Dipole=0.5360944,0.1328421,-0.3909406\DipoleDeriv=0.0664862,-0
 .0933936,-0.1301275,-0.0474666,0.2434809,0.3403533,-0.0961873,0.423943
 7,0.8410785,-0.0615261,-0.054704,-0.1189963,-0.0176871,-0.0219952,0.12
 70893,0.0695637,-0.3046353,-0.5981494,-0.0619868,0.0195975,-0.0152291,
 0.0193491,0.0281469,-0.078588,-0.0177604,-0.0246581,-0.0000308,0.07055
 58,0.0175581,0.066573,-0.0441584,-0.0460496,0.0150994,0.0094258,0.0001
 498,0.0097664,0.154251,0.0606606,0.1136751,0.1252745,-0.2520227,-0.694
 9176,0.1329571,-0.4338491,-0.546635,-0.2589058,0.0190214,0.0519973,0.0
 033658,-0.272888,-0.0447442,-0.0339457,0.1092389,-0.0997289,0.2283803,
 0.0075895,0.0000885,0.0054431,0.221599,-0.0035947,-0.0027748,0.0094164
 ,0.232649,-0.2755811,0.2233884,-0.037109,0.1435548,-0.0794765,0.178615
 8,-0.1319681,0.1052731,-0.1990517,0.1383265,-0.1997179,0.069128,-0.187
 6752,0.1792053,0.1606867,0.0706896,0.1151206,0.3601018\Polar=20.329747
 3,-1.8014682,30.5382368,2.3182183,9.5438786,72.0895875\PG=C01 [X(C3H5O
 1)]\NImag=1\\0.50647362,0.08575733,0.40463529,0.07233374,-0.12288020,0
 .40893957,-0.08590405,0.00972164,-0.03926578,0.17552734,0.00747796,-0.
 07771243,0.03822623,-0.07191189,0.17398767,-0.06293439,0.07235821,-0.2
 2916626,0.28955552,-0.29985786,1.23403292,-0.30589557,-0.02040835,-0.0
 5584103,-0.00288276,0.00116772,-0.00409354,0.33072399,-0.01338628,-0.0
 3909957,0.00976330,0.00723036,0.00014218,-0.00162588,0.01806899,0.0422
 7561,-0.04938706,0.00381465,-0.04991583,-0.03843746,0.00096596,-0.0156
 2459,0.06080395,-0.00343555,0.06438374,-0.08449693,-0.09358375,0.02146
 838,0.00420129,0.00862874,0.00080458,-0.01080158,-0.02962679,0.0094628
 7,0.08977717,-0.09972696,-0.24471285,0.08065735,0.00038795,-0.00264014
 ,0.00217224,0.00117039,0.00055677,-0.00059187,0.10350822,0.26595871,0.
 02513491,0.07103572,-0.06172898,0.01119749,0.03420174,-0.01981103,-0.0
 0183605,-0.00563528,0.00252431,-0.02926312,-0.08317136,0.07865820,-0.0
 3811702,0.00772287,-0.00248100,0.00445321,-0.00987491,0.00914003,-0.01
 260299,0.01701597,0.01483253,0.00114998,-0.00480967,-0.00295381,0.0577
 7459,-0.01018025,-0.01539781,0.04118225,-0.01338167,0.01138186,-0.0322
 5038,0.00135415,-0.00722492,-0.00297081,0.01434852,-0.02379406,-0.0177
 6778,0.01815653,0.03499718,-0.01370293,0.02146553,0.02083444,0.0014735
 6,-0.00622513,-0.05826430,0.00108040,-0.00408347,-0.00243602,0.0039417
 2,-0.00188228,-0.00271910,0.00696091,-0.02965499,0.01222370,0.00775196
 ,-0.00044101,-0.00943202,-0.09851692,0.06236706,-0.23092586,-0.0000080
 6,0.00035563,0.00134685,0.00009691,-0.00073152,-0.00086046,-0.00165372
 ,0.00586172,0.00322153,0.13939682,0.00009130,0.00749025,0.00980157,0.0
 6253088,-0.10333345,0.24136311,-0.00043096,0.00064510,0.00036525,-0.00
 011385,0.00009736,-0.00103035,0.00337160,-0.00543226,-0.00352360,-0.08
 769122,0.14507805,-0.00242313,0.00056362,-0.02872681,-0.23011964,0.240
 11152,-0.93780897,0.00096320,0.00231516,-0.00045291,-0.00286950,-0.000
 06402,-0.00017795,-0.00595808,0.01464907,0.01433606,0.33006413,-0.3426
 6345,1.33776275,0.00525663,0.00078985,-0.00120310,0.00383769,-0.000563
 67,0.00097579,0.00007365,-0.00026107,0.00108072,-0.00024338,0.00003260
 ,-0.00057249,-0.00010160,0.00010617,-0.00020950,-0.04763410,0.02327465
 ,-0.09108800,0.03882030,0.00078354,0.00500208,0.00118032,-0.00030335,0
 .00369275,-0.00006873,-0.00000336,-0.00012043,0.00016010,-0.00025463,0
 .00005960,-0.00097776,0.00009399,-0.00021458,0.00032937,0.02303268,-0.
 04768603,0.09174749,-0.02335251,0.03922173,-0.00103805,0.00088543,0.00
 072338,0.00125389,-0.00146292,0.00878064,-0.00003040,0.00007091,-0.000
 24198,-0.00002032,0.00001663,-0.00012294,0.00008473,0.00010829,0.00028
 662,-0.09127353,0.09291527,-0.37863020,0.09110175,-0.09246636,0.369184
 98,-0.00800930,0.00919539,0.01841591,-0.00089228,0.00363236,-0.0033790
 5,0.00143060,0.00024950,0.00018932,0.00115001,-0.00047120,-0.00166728,
 -0.00945364,-0.01862118,-0.00998192,0.00076779,-0.00142807,0.00230513,
 -0.00000024,0.00001495,-0.00008591,0.19504073,0.02808392,-0.03744196,-
 0.05442308,0.00486484,-0.00574682,0.01582054,-0.00154380,0.00276699,0.
 00166852,-0.00288971,0.00359796,0.00297233,-0.01760118,0.01088417,0.01
 397842,-0.00253226,0.00307823,-0.00631243,0.00000515,0.00000266,0.0000
 1751,0.18501259,0.23776405,0.03186060,-0.04611424,-0.06075892,0.004905
 77,-0.00596315,0.01801722,-0.00087259,0.00216980,0.00110847,-0.0036733
 6,0.00249452,0.00364932,-0.00932975,0.03860173,0.01346671,-0.00230515,
 0.00267382,-0.00659141,-0.00007154,0.00010753,0.00013351,-0.07583525,-
 0.03344211,0.06685674,0.00294065,0.00124603,-0.00399510,0.00017648,-0.
 00092337,0.00085693,-0.00003727,0.00035368,0.00010829,-0.00083347,0.00
 064019,0.00082081,-0.00144880,0.00235601,0.00721623,-0.00020068,0.0003
 9567,-0.00087411,-0.00000896,-0.00001129,0.00000783,-0.18003367,-0.193
 39954,0.05532126,0.17944573,0.00109945,-0.00276299,-0.00350773,0.00086
 124,0.00022837,0.00208876,0.00062523,0.00005826,0.00002376,-0.00001675
 ,0.00087664,0.00037275,-0.01407520,-0.00519958,0.00959616,-0.00022110,
 0.00006276,-0.00034695,-0.00003115,0.00004222,-0.00008475,-0.17758434,
 -0.21490527,0.03947209,0.18934262,0.22159961,0.00015631,-0.00112872,-0
 .00020059,-0.00056335,0.00000361,-0.00015563,-0.00017394,0.00046102,0.
 00065482,0.00014876,0.00036879,-0.00027182,-0.01029555,-0.01189737,0.0
 0227189,0.00016450,0.00009839,0.00028944,-0.00001363,-0.00001195,-0.00
 011400,0.07003906,0.05972029,-0.03588162,-0.05946215,-0.04761408,0.033
 40751\\0.00000334,0.00000170,-0.00000010,0.00000088,-0.00000019,0.0000
 0011,0.00000132,0.00000272,-0.00000034,0.00000322,-0.00000006,0.000000
 22,0.,-0.00000021,0.00000011,-0.00000137,-0.00000183,0.00000017,-0.000
 00134,-0.00000134,0.00000012,-0.00000406,-0.00000251,0.00000042,-0.000
 00200,0.00000171,-0.00000071\\\@


 FOR THE NATURE OF THE CHEMICAL BOND
 IS THE PROBLEM AT THE HEART OF ALL CHEMISTRY.

                     -- BRYCE CRAWFORD, JR., 1953
 Job cpu time:       0 days  0 hours  7 minutes  0.3 seconds.
 File lengths (MBytes):  RWF=      9 Int=      0 D2E=      0 Chk=      1 Scr=      1
 Normal termination of Gaussian 09 at Tue Jan  5 14:28:13 2021.
