6
Properties=species:S:1:pos:R:3 energy=-3150.937955701303 pbc="F F F"
C        1.16830800      -0.03778600       0.01278900
H        0.60952800       0.79368400       0.42825200
H        0.60955100      -0.85921100      -0.42222700
C        2.53635300      -0.04998100       0.03649900
C        3.76211800      -0.06092000       0.05773600
H        4.82351600      -0.07033900       0.07602600
