9
Properties=species:S:1:pos:R:3:momenta:R:3:forces:R:3 pbc="F F F"
C       -7.14496367       0.31263815       2.00651530       1.15145791       0.24887877       0.27239071      -0.43756303       0.74830609       0.69246432
C       -7.48473518       0.69891752       0.68266163      -0.40835479       0.08229008       0.50691018      -0.00488279      -0.02424419       0.01365968
H       -6.07470215       0.31716963       2.23833523      -0.12705068      -0.11810982      -0.35673509       0.01232288       0.03701159      -0.00602755
H       -7.60785544      -0.62430964       2.34224577      -0.20934515      -0.17651447       0.05034985      -0.02605554      -0.01108602       0.01108589
H       -7.64239850       1.15012017       2.78634218       0.05360486       0.03569904       0.25782679       0.24814009      -0.31093532      -0.19330590
C       -7.79860219       1.02947491      -0.43462821      -0.61274888       1.42991358       0.92245358       0.00564778       0.03078060       0.02351245
H       -8.06834856       1.31672946      -1.38792956       0.08281701      -0.05453507       0.13238178       0.00814902      -0.00646450      -0.04317729
O       -7.96123083       2.14986322       3.82620165      -1.04136547       0.67223352      -0.84879852       0.19666178      -0.50744128      -0.49083625
H       -7.37088659       2.86807911       3.54804261      -0.36113148      -0.27163547       0.13024167      -0.00242021       0.04407302      -0.00737535
