9
Properties=species:S:1:pos:R:3 energy=-5228.93242657626 pbc="F F F"
C       -6.40215500       1.91222100      -1.30283600
C       -6.60457700       1.16323500      -0.00909900
H       -6.97357300       1.45052800      -2.10913400
H       -5.33739900       1.91505500      -1.56151300
H       -6.71944500       2.95338900      -1.17661800
C       -7.36951100       0.09958800       0.11250900
H       -7.70438100      -0.61679900       0.84249500
O       -5.85657600       1.77789000       1.01991900
H       -5.99572400       1.27794100       1.86889400
