22
Properties=species:S:1:pos:R:3:momenta:R:3:forces:R:3 pbc="F F F"
O        3.03098932       0.79032856      -3.23254839      -0.31556158      -0.71421114      -2.20201954      -0.51856690       0.21943381       1.48772594
O        1.89876908       0.69681310      -1.24771483       0.32545747       1.85790503       0.76932979       2.67811636       3.13331900       0.06332866
C        2.52022371       1.58979595      -0.76321454      -0.92464554       0.24852679      -0.77458541      -2.40973806      -3.69764333      -2.35445396
O        2.94134110       2.23695289       0.26340046      -0.40257647       0.96828240       0.84386309       0.07947549      -0.03226204      -0.01416558
C        2.75891908       1.34424127       1.46944298      -1.19871535       1.45335260       1.04917410      -0.08589344       0.51261260       0.89593281
C        1.33398012       0.85108651       1.67015499       0.12711023      -0.10759203      -0.82876522       0.07311496      -0.04188541      -0.03892826
C        0.23083101       1.91088081       1.54693072      -0.16685987      -0.07025282       0.10300999       0.10017540      -0.02732455       0.03533758
C       -0.99897509       1.34422141       0.84992440      -0.00980496      -0.81025386       0.34072392       0.04044063      -0.02342055       0.18870538
O       -0.92809618       0.60769634      -0.09596836      -1.26326260       1.07147041      -0.90149079      -0.02296733      -0.02836556      -0.11709495
C       -2.37959311       1.75253640       1.43272511       0.21752625      -0.73106816       0.59082942       0.04632785       0.08717805       0.03298970
O       -3.04518408       0.94909442       2.03083425      -0.22816094      -0.07527474       3.10816371       0.10535223       0.05930599       0.00647017
C       -2.75892982       3.17562430       1.19165337      -0.47736034      -0.87189226      -0.02404733       0.01932652       0.03181701       0.00950534
H        3.16648593       0.08872860      -3.81047606       0.11537434      -0.00652104       0.08527957      -0.02451355       0.03696536      -0.03610515
H        3.48846203       0.53052073       1.36787708       0.32304488      -0.24900299      -0.13969346       0.12860755      -0.16311305      -0.01910181
H        3.10712509       2.05303774       2.25049223       0.45050878      -0.25468115      -0.01203865      -0.06747962       0.03664292      -0.04269186
H        1.13618091       0.00902349       0.95969074      -0.01589708      -0.01156362       0.22488096      -0.10401653       0.00784866      -0.05012883
H        1.27850810       0.36448194       2.67244960      -0.45241485       0.03940158      -0.45786668      -0.02191611       0.02259740      -0.00499608
H       -0.01257504       2.33315499       2.54247151      -0.40947713       0.34240077       0.47139338      -0.02924691      -0.05208137      -0.02127876
H        0.58393543       2.78106996       0.94945231      -0.23673123      -0.30371200      -0.34062019       0.00877276       0.01669284       0.00131766
H       -3.79727771       3.36845708       1.51777225      -0.08040606      -0.07105818       0.29167301       0.00640175      -0.01781483      -0.05489060
H       -2.12574525       3.87387876       1.75464315       0.18895875       0.32024623       0.30377185       0.03058963       0.00983382       0.02631766
H       -2.69054731       3.47374154       0.13346023      -0.33675502      -0.06574222       0.05517584      -0.03236269      -0.09033677       0.00620495
