11
Properties=species:S:1:pos:R:3 energy=-6292.585783794722 pbc="F F F"
C        1.02220100       0.07367000       0.23591100
C        0.31731600      -0.96022600       1.06652900
O       -0.74683600      -0.74870200       1.60246600
C        1.02458500      -2.26803500       1.22360000
C        1.34964300      -3.05787700       0.20577500
H        0.48178000       1.03189500       0.24974500
H        1.10579000      -0.24057500      -0.81259100
H        2.04119000       0.26114100       0.59871200
H        1.21793100      -2.53723600       2.26532100
H        1.83536700      -4.01753200       0.33705400
H        1.15006100      -2.82099100      -0.83152400
