3
Properties=species:S:1:pos:R:3 energy=-1061.7066310420707 pbc="F F F"
C        1.29878400       0.06573900       0.29705300
H        0.42705600       0.33099300       0.85410300
H        2.17105300      -0.19938600      -0.25921300
