2
Properties=species:S:1:pos:R:3 energy=-3079.7119735190618 pbc="F F F"
C        1.01765600      -0.08884500       0.02050700
O        2.17112000      -0.08884500       0.02050700
