5
Properties=species:S:1:pos:R:3:momenta:R:3:forces:R:3 pbc="F F F"
C        3.78081764      -4.20517152       1.75438592       0.25387626      -0.42737397      -1.14289268      -0.01160875      -0.01905689       0.02434341
C        5.21440280      -1.17655320       0.66390772       1.28928141       1.48183360      -0.81555034      -0.02087986       0.02424883       0.00374199
O        4.33440954      -0.73787587       1.24016990       0.55872449       0.63385080      -1.10746566       0.02981278      -0.00799092      -0.01584077
H        4.07273300      -3.97792138       2.76377114       0.21034845       0.04622709       0.11659191      -0.00534501      -0.01353071      -0.01892597
H        4.60279448      -4.09378167       1.07113616       0.38141069      -0.28430101       0.40360119       0.00802083       0.01632969       0.00668134
