9
Properties=species:S:1:pos:R:3 energy=-723.0444745474495 pbc="F F F"
C       -8.09844016       1.15154480      -0.00481052
C       -6.66480673       1.14579908      -0.04031131
H       -8.47943309       0.86513319       0.99118069
H       -8.53675081       0.44738061      -0.73183053
H       -8.51178314       2.14951420      -0.23040014
C       -5.45941392       1.14469947      -0.04684224
H       -4.43031356       1.14663146      -0.03609019
O       -5.50938193       2.25421339       6.79870273
H       -4.71959666       2.05612380       7.34119150
9
Properties=species:S:1:pos:R:3 energy=-723.0444636428039 pbc="F F F"
C       -8.10193056       1.15322264      -0.00656259
C       -6.66806783       1.15149531      -0.02124046
H       -8.48862696       0.85058778       0.98305770
H       -8.52229239       0.45430656      -0.74904884
H       -8.51522149       2.15325477      -0.22667558
C       -5.46268730       1.14722080      -0.00810390
H       -4.43414542       1.14863782       0.01717577
O       -5.50080834       2.24281230       6.74697413
H       -4.71613971       2.05950201       7.30521376
9
Properties=species:S:1:pos:R:3 energy=-723.043747958404 pbc="F F F"
C       -8.10509025       1.15481301      -0.00843245
C       -6.67122235       1.15710075      -0.00211395
H       -8.49761436       0.83592588       0.97412588
H       -8.50729448       0.46180047      -0.76597113
H       -8.51869971       2.15669383      -0.22284866
C       -5.46630398       1.14970819       0.03049671
H       -4.43871608       1.15066372       0.07058292
O       -5.49188410       2.23124473       6.69559635
H       -4.71309469       2.06308941       7.26935431
9
Properties=species:S:1:pos:R:3 energy=-723.0424531666046 pbc="F F F"
C       -8.10792587       1.15631335      -0.01041175
C       -6.67428541       1.16261706       0.01705804
H       -8.50639826       0.82116273       0.96443111
H       -8.49179024       0.46982986      -0.78260320
H       -8.52221290       2.15984933      -0.21892881
C       -5.47025613       1.15216364       0.06895930
H       -4.44397916       1.15270664       0.12409531
O       -5.48255962       2.21946893       6.64456610
H       -4.71051241       2.06692846       7.23362390
9
Properties=species:S:1:pos:R:3 energy=-723.0406841069578 pbc="F F F"
C       -8.11044409       1.15772114      -0.01249217
C       -6.67727212       1.16804591       0.03626533
H       -8.51498162       0.80631353       0.95401924
H       -8.47581279       0.47836223      -0.79895087
H       -8.52575611       2.16273927      -0.21492546
C       -5.47453595       1.15458913       0.10728359
H       -4.44988831       1.15476408       0.17767700
O       -5.47278532       2.20744313       6.59388010
H       -4.70844368       2.07106158       7.19803323
9
Properties=species:S:1:pos:R:3 energy=-723.0385269198382 pbc="F F F"
C       -8.11265153       1.15903384      -0.01466538
C       -6.68019760       1.17338898       0.05549773
H       -8.52336742       0.79139350       0.94293615
H       -8.45939530       0.48736511      -0.81501992
H       -8.52932443       2.16538161      -0.21084803
C       -5.47913562       1.15698665       0.14546929
H       -4.45639717       1.15683351       0.23129205
O       -5.46251163       2.19512558       6.54353507
H       -4.70693930       2.07553123       7.16259303
9
Properties=species:S:1:pos:R:3 energy=-723.0360525498784 pbc="F F F"
C       -8.11455487       1.16024891      -0.01692304
C       -6.68307695       1.17864793       0.07474507
H       -8.53155861       0.77641784       0.93122770
H       -8.44257091       0.49680601      -0.83081616
H       -8.53291293       2.16779432      -0.20670595
C       -5.48404734       1.15935821       0.18351611
H       -4.46345936       1.15891242       0.28490451
O       -5.45168896       2.18247453       6.49352773
H       -4.70605008       2.08037983       7.12731402
9
Properties=species:S:1:pos:R:3 energy=-723.033314988232 pbc="F F F"
C       -8.11616073       1.16136381      -0.01925683
C       -6.68592528       1.18382445       0.09399716
H       -8.53955817       0.76140179       0.91893977
H       -8.42537276       0.50665243      -0.84634540
H       -8.53651669       2.16999539      -0.20250864
C       -5.48926328       1.16170578       0.22142378
H       -4.47102853       1.16099829       0.33847843
O       -5.44026773       2.16944822       6.44385480
H       -4.70582683       2.08564985       7.09220693
9
Properties=species:S:1:pos:R:3 energy=-723.0303547990582 pbc="F F F"
C       -8.11747577       1.16237600      -0.02165842
C       -6.68875772       1.18892020       0.11324381
H       -8.54736906       0.74636055       0.90611823
H       -8.40783401       0.51687191      -0.86161343
H       -8.54013077       2.17200278      -0.19826555
C       -5.49477564       1.16403135       0.25919199
H       -4.47905831       1.16308860       0.39197788
O       -5.42819837       2.15600490       6.39451299
H       -4.70632035       2.09138370       7.05728248
9
Properties=species:S:1:pos:R:3 energy=-723.0272006996051 pbc="F F F"
C       -8.11850664       1.16328296      -0.02411948
C       -6.69158938       1.19393686       0.13247485
H       -8.55499424       0.73130934       0.89280895
H       -8.38998780       0.52743194      -0.87662605
H       -8.54375026       2.17383447      -0.19398608
C       -5.50057661       1.16633693       0.29682048
H       -4.48750235       1.16518083       0.44536690
O       -5.41543129       2.14210282       6.34549903
H       -4.70758144       2.09762385       7.02255139
9
Properties=species:S:1:pos:R:3 energy=-723.0238602291786 pbc="F F F"
C       -8.11925998       1.16408213      -0.02663167
C       -6.69443536       1.19887610       0.15168009
H       -8.56243668       0.71626337       0.87905778
H       -8.37186728       0.53830006      -0.89138907
H       -8.54737023       2.17550844      -0.18967967
C       -5.50665836       1.16862451       0.33430896
H       -4.49631428       1.16727247       0.49860955
O       -5.40191691       2.12770021       6.29680963
H       -4.70966091       2.10441272       6.98802439
9
Properties=species:S:1:pos:R:3 energy=-723.0203878287211 pbc="F F F"
C       -8.11974244       1.16477099      -0.02918667
C       -6.69731078       1.20373959       0.17084935
H       -8.56969935       0.70123786       0.86491061
H       -8.35350560       0.54944376      -0.90590829
H       -8.55098576       2.17704266      -0.18535575
C       -5.51301310       1.17089606       0.37165713
H       -4.50544774       1.16936101       0.55166989
O       -5.38760565       2.11275532       6.24844152
H       -4.71260958       2.11179275       6.95371220
9
Properties=species:S:1:pos:R:3 energy=-723.0167963198372 pbc="F F F"
C       -8.11996068       1.16534700      -0.03177614
C       -6.70023075       1.20852899       0.18997244
H       -8.57678521       0.68624802       0.85041331
H       -8.33493590       0.56083056      -0.92018952
H       -8.55459192       2.17845511      -0.18102374
C       -5.51963301       1.17315359       0.40886472
H       -4.51485636       1.17144391       0.60451197
O       -5.37244793       2.09722641       6.20039141
H       -4.71647824       2.11980640       6.91962553
9
Properties=species:S:1:pos:R:3 energy=-723.0131317399427 pbc="F F F"
C       -8.11992134       1.16580762      -0.03439175
C       -6.70321039       1.21324600       0.20903919
H       -8.58369723       0.67130907       0.83561173
H       -8.31619133       0.57242799      -0.93423854
H       -8.55818378       2.17976375      -0.17669308
C       -5.52651028       1.17539909       0.44593145
H       -4.52449378       1.17351868       0.65709985
O       -5.35639417       2.08107171       6.15265602
H       -4.72131770       2.12849610       6.88577513
9
Properties=species:S:1:pos:R:3 energy=-723.0094571640665 pbc="F F F"
C       -8.11962850       1.16615643      -0.03702505
C       -6.70626675       1.21788741       0.22804206
H       -8.59042887       0.65643492       0.82054173
H       -8.29729531       0.58421077      -0.94805408
H       -8.56175520       2.18098001      -0.17237238
C       -5.53364027       1.17763324       0.48285572
H       -4.53433197       1.17558372       0.70940121
O       -5.33940677       2.06426764       6.10524393
H       -4.72716635       2.13788585       6.85215684
9
Properties=species:S:1:pos:R:3 energy=-723.0058187609933 pbc="F F F"
C       -8.11907198       1.16643132      -0.03966682
C       -6.70942779       1.22242287       0.24698839
H       -8.59692049       0.64163221       0.80518305
H       -8.27821679       0.59619407      -0.96159509
H       -8.56529319       2.18207866      -0.16806581
C       -5.54103620       1.17984947       0.51962876
H       -4.54444539       1.17764264       0.76140404
O       -5.32151515       2.04689228       6.05823007
H       -4.73399302       2.14789648       6.81868341
9
Properties=species:S:1:pos:R:3 energy=-723.0022752854904 pbc="F F F"
C       -8.11823659       1.16668206      -0.04230761
C       -6.71272522       1.22681256       0.26589068
H       -8.60309395       0.62690504       0.78949592
H       -8.25890581       0.60840711      -0.97480677
H       -8.56878237       2.18302170      -0.16377595
C       -5.54871745       1.18203867       0.55623926
H       -4.55494416       1.17970088       0.81310339
O       -5.30277204       2.02905906       6.01171242
H       -4.74174241       2.15841292       6.78523866
9
Properties=species:S:1:pos:R:3 energy=-722.9988870797882 pbc="F F F"
C       -8.11710715       1.16695847      -0.04493795
C       -6.71619078       1.23101666       0.28476144
H       -8.60887111       0.61225751       0.77344057
H       -8.23931236       0.62087912      -0.98763426
H       -8.57220738       2.18377113      -0.15950542
C       -5.55670344       1.18419171       0.59267591
H       -4.56593844       1.18176387       0.86449431
O       -5.28323018       2.01088143       5.96578901
H       -4.75035916       2.16932010       6.75170638
9
Properties=species:S:1:pos:R:3 energy=-722.9957445982151 pbc="F F F"
C       -8.11566849       1.16731033      -0.04754838
C       -6.71985620       1.23499535       0.30361316
H       -8.61417382       0.59769371       0.75697720
H       -8.21938645       0.63363932      -1.00002273
H       -8.57555283       2.18428895      -0.15525679
C       -5.56501357       1.18629950       0.62892741
H       -4.57753838       1.18383704       0.91557187
O       -5.26294232       1.99247288       5.92055786
H       -4.75978793       2.18050292       6.71797039
9
Properties=species:S:1:pos:R:3 energy=-722.9928868397134 pbc="F F F"
C       -8.11390543       1.16778746      -0.05012943
C       -6.72375323       1.23870880       0.32245836
H       -8.61892394       0.58321775       0.74006604
H       -8.19907810       0.64671696      -1.01191732
H       -8.57880337       2.18453718      -0.15103268
C       -5.57366724       1.18835290       0.66498246
H       -4.58985412       1.18592581       0.96633112
O       -5.24196121       1.97394685       5.87611697
H       -4.76997338       2.19184631       6.68391447
9
Properties=species:S:1:pos:R:3 energy=-722.9903604144474 pbc="F F F"
C       -8.11180303       1.16843907      -0.05267172
C       -6.72791311       1.24211758       0.34130950
H       -8.62304406       0.56883384       0.72266761
H       -8.17833789       0.66014102      -1.02326357
H       -8.58194372       2.18447804      -0.14683563
C       -5.58268368       1.19034295       0.70082990
H       -4.60299478       1.18803555       1.01676728
O       -5.22033975       1.95541660       5.83256383
H       -4.78085997       2.20323535       6.64942279
9
Properties=species:S:1:pos:R:3 energy=-722.9882711247878 pbc="F F F"
C       -8.10936175       1.16927978      -0.05517004
C       -6.73233916       1.24520603       0.36017643
H       -8.62650173       0.55455257       0.70476101
H       -8.15715116       0.67392644      -1.03402908
H       -8.58496521       2.18408893      -0.14266510
C       -5.59207180       1.19226849       0.73646819
H       -4.61700765       1.19016833       1.06688526
O       -5.19814000       1.93698305       5.78996288
H       -4.79238155       2.21456638       6.61440044
9
Properties=species:S:1:pos:R:3 energy=-722.9864817101587 pbc="F F F"
C       -8.10660582       1.17027059      -0.05762568
C       -6.73699131       1.24799528       0.37906500
H       -8.62933413       0.54039445       0.68635409
H       -8.13555716       0.68806638      -1.04421568
H       -8.58786936       2.18337066      -0.13851581
C       -5.60182448       1.19414050       0.77191063
H       -4.63184411       1.19232103       1.11670500
O       -5.17543821       1.91872798       5.74832742
H       -4.80445542       2.22575313       6.57878502
9
Properties=species:S:1:pos:R:3 energy=-722.9850268373259 pbc="F F F"
C       -8.10356155       1.17136786      -0.06004052
C       -6.74182578       1.25050963       0.39798068
H       -8.63158443       0.52638084       0.66745720
H       -8.11359975       0.70255212      -1.05382816
H       -8.59065857       2.18232606      -0.13438206
C       -5.61193321       1.19597102       0.80717181
H       -4.64744733       1.19449010       1.16624775
O       -5.15231187       1.90073155       5.70766636
H       -4.81699751       2.23671082       6.54251694
9
Properties=species:S:1:pos:R:3 energy=-722.9838837256646 pbc="F F F"
C       -8.10025522       1.17252797      -0.06241639
C       -6.74679877       1.25277341       0.41692896
H       -8.63329581       0.51253310       0.64808067
H       -8.09132280       0.71737493      -1.06287129
H       -8.59333527       2.18095795      -0.13025815
C       -5.62238952       1.19777208       0.84226631
H       -4.66376046       1.19667199       1.21553474
O       -5.12883846       1.88307389       5.66798857
H       -4.82992370       2.24735468       6.50553657
9
Properties=species:S:1:pos:R:3 energy=-722.9821041401792 pbc="F F F"
C       -8.09671313       1.17370729      -0.06475517
C       -6.75186649       1.25481090       0.43591532
H       -8.63451144       0.49887260       0.62823483
H       -8.06877019       0.73252610      -1.07134985
H       -8.59590184       2.17926918      -0.12613838
C       -5.63318489       1.19955570       0.87720872
H       -4.68072665       1.19886315       1.26458721
O       -5.10509545       1.86583514       5.62930297
H       -4.84314991       2.25759994       6.46778432
9
Properties=species:S:1:pos:R:3 energy=-722.9814687972809 pbc="F F F"
C       -8.09296158       1.17486220      -0.06705870
C       -6.75698516       1.25664643       0.45494526
H       -8.63527451       0.48542068       0.60793003
H       -8.04598579       0.74799690      -1.07926861
H       -8.59836069       2.17726257      -0.12201704
C       -5.64431085       1.20133391       0.91201362
H       -4.69828906       1.20106003       1.31342641
O       -5.08116032       1.84909545       5.59161843
H       -4.85659205       2.26736183       6.42920058
9
Properties=species:S:1:pos:R:3 energy=-722.9811109871753 pbc="F F F"
C       -8.08902424       1.17595079      -0.06932876
C       -6.76211491       1.25830337       0.47402273
H       -8.63562614       0.47219857       0.58717984
H       -8.02301369       0.76377652      -1.08663234
H       -8.60071420       2.17494290      -0.11788932
C       -5.65575906       1.20311799       0.94669484
H       -4.71639103       1.20325927       1.36207252
O       -5.05710579       1.83292947       5.55494145
H       -4.87017094       2.27656112       6.38972903
9
Properties=species:S:1:pos:R:3 energy=-722.9809906687001 pbc="F F F"
C       -8.08490404       1.17694491      -0.07156639
C       -6.76724696       1.25979778       0.49313953
H       -8.63559124       0.45922621       0.56602359
H       -7.99989991       0.77983745      -1.09344578
H       -8.60296446       2.17233030      -0.11375742
C       -5.66752259       1.20491321       0.98126014
H       -4.73497743       1.20545914       1.41053748
O       -5.03296671       1.81736831       5.51925934
H       -4.88384665       2.28516269       6.34933950
9
Properties=species:S:1:pos:R:3 energy=-722.9811832470118 pbc="F F F"
C       -8.08059400       1.17782295      -0.07377231
C       -6.77238738       1.26114222       0.51228170
H       -8.63518699       0.44652299       0.54451289
H       -7.97669135       0.79614423      -1.09971360
H       -8.60511344       2.16945227      -0.10962687
C       -5.67959518       1.20672195       1.01571439
H       -4.75399385       1.20765863       1.45882929
O       -5.00875989       1.80242232       5.48455024
H       -4.89759793       2.29315243       6.30801427
9
Properties=species:S:1:pos:R:3 energy=-722.9816718404342 pbc="F F F"
C       -8.07608706       1.17856336      -0.07594723
C       -6.77754231       1.26234924       0.53143521
H       -8.63443051       0.43410827       0.52269943
H       -7.95343490       0.81266137      -1.10544051
H       -8.60716310       2.16633634      -0.10550324
C       -5.69197055       1.20854661       1.05006244
H       -4.77338589       1.20985676       1.50695591
O       -4.98450204       1.78810170       5.45079228
H       -4.91140365       2.30051636       6.26573570
9
Properties=species:S:1:pos:R:3 energy=-722.9824874943121 pbc="F F F"
C       -8.07137620       1.17914456      -0.07809187
C       -6.78271791       1.26343137       0.55058606
H       -8.63333893       0.42200143       0.50063489
H       -7.93017749       0.82935335      -1.11063120
H       -8.60911541       2.16301003      -0.10139207
C       -5.70464245       1.21038955       1.08430914
H       -4.79309913       1.21205254       1.55492532
O       -4.96020983       1.77441666       5.41796357
H       -4.92524267       2.30724052       6.22248615
9
Properties=species:S:1:pos:R:3 energy=-722.9835870348977 pbc="F F F"
C       -8.06645435       1.17954499      -0.08020693
C       -6.78792032       1.26440116       0.56972023
H       -8.63192937       0.41022184       0.47837095
H       -7.90696602       0.84618467      -1.11529036
H       -8.61097233       2.15950087      -0.09729893
C       -5.71760460       1.21225315       1.11845934
H       -4.81307917       1.21424498       1.60274549
O       -4.93589998       1.76137742       5.38604220
H       -4.93909386       2.31331092       6.17824800
9
Properties=species:S:1:pos:R:3 energy=-722.984968486537 pbc="F F F"
C       -8.06131451       1.17974327      -0.08229302
C       -6.79315571       1.26527103       0.58882370
H       -8.63021878       0.39878886       0.45595930
H       -7.88384729       0.86311985      -1.11942259
H       -8.61273576       2.15583631      -0.09322940
C       -5.73085078       1.21413978       1.15251789
H       -4.83327191       1.21643311       1.65042424
O       -4.91158926       1.74899413       5.35500613
H       -4.95293600       2.31871364       6.13300374
9
Properties=species:S:1:pos:R:3 energy=-722.9866391197319 pbc="F F F"
C       -8.05595155       1.17974682      -0.08433267
C       -6.79842995       1.26603696       0.60788149
H       -8.62819459       0.38772259       0.43344990
H       -7.86085141       0.88012793      -1.12301514
H       -8.61439720       2.15202940      -0.08919108
C       -5.74438114       1.21604682       1.18648617
H       -4.85367281       1.21861815       1.69794737
O       -4.88730780       1.73726937       5.32480617
H       -4.96673356       2.32344196       6.08675778
9
Properties=species:S:1:pos:R:3 energy=-722.9885302319989 pbc="F F F"
C       -8.05036442       1.17962345      -0.08627052
C       -6.80374838       1.26666031       0.62687658
H       -8.62578230       0.37704454       0.41088917
H       -7.83797346       0.89718734      -1.12601896
H       -8.61592629       2.14806306      -0.08519589
C       -5.75820922       1.21796136       1.22035842
H       -4.87438121       1.22080589       1.74525445
O       -4.86311373       1.72618975       5.29533626
H       -4.98042100       2.32750431       6.03956048
9
Properties=species:S:1:pos:R:3 energy=-722.9905627822594 pbc="F F F"
C       -8.04455256       1.17944862      -0.08804646
C       -6.80911624       1.26709814       0.64579173
H       -8.62289965       0.36677643       0.38832307
H       -7.81520410       0.91427775      -1.12838042
H       -8.61728993       2.14391638      -0.08125627
C       -5.77235024       1.21986912       1.25412794
H       -4.89550957       1.22300269       1.79227922
O       -4.83906870       1.71573987       5.26648318
H       -4.99392901       2.33091100       5.99146800
9
Properties=species:S:1:pos:R:3 energy=-722.992942638767 pbc="F F F"
C       -8.03851543       1.17929775      -0.08960035
C       -6.81453880       1.26730746       0.66460965
H       -8.61946435       0.35693998       0.36579757
H       -7.79253401       0.93137880      -1.13004589
H       -8.61845501       2.13956847      -0.07738468
C       -5.78681943       1.22175588       1.28778807
H       -4.91717032       1.22521494       1.83895542
O       -4.81523438       1.70590435       5.23813371
H       -5.00718826       2.33367236       5.94253648
9
Properties=species:S:1:pos:R:3 energy=-722.9956607080463 pbc="F F F"
C       -8.03225246       1.17924629      -0.09087209
C       -6.82002132       1.26724531       0.68331311
H       -8.61539413       0.34755690       0.34335862
H       -7.76995387       0.94847013      -1.13096172
H       -8.61938844       2.13499844      -0.07359356
C       -5.80163201       1.22360738       1.32133211
H       -4.93947592       1.22744901       1.88521680
O       -4.79167241       1.69666781       5.21017464
H       -5.02012945       2.33579873       5.89282207
9
Properties=species:S:1:pos:R:3 energy=-722.9987806925541 pbc="F F F"
C       -8.02576310       1.17936966      -0.09180153
C       -6.82556905       1.26686874       0.70188482
H       -8.61060671       0.33864892       0.32105220
H       -7.74745433       0.96553139      -1.13107429
H       -8.62005712       2.13018541      -0.06989536
C       -5.81680320       1.22540936       1.35475338
H       -4.96253879       1.22971127       1.93099711
O       -4.76844445       1.68801484       5.18249274
H       -5.03268325       2.33730042       5.84238093
9
Properties=species:S:1:pos:R:3 energy=-723.0023563189126 pbc="F F F"
C       -8.01904619       1.17973677      -0.09233246
C       -6.83118679       1.26613935       0.72030943
H       -8.60502849       0.33023471       0.29892085
H       -7.72502679       0.98254348      -1.13033700
H       -8.62043157       2.12511127      -0.06630120
C       -5.83234653       1.22714881       1.38804587
H       -4.98646084       1.23200753       1.97623786
O       -4.74561330       1.67992986       5.15497441
H       -5.04477949       2.33818822       5.79127223
9
Properties=species:S:1:pos:R:3 energy=-723.0063837114606 pbc="F F F"
C       -8.01209357       1.18034063      -0.09245385
C       -6.83687398       1.26507215       0.73859359
H       -8.59868667       0.32229760       0.27696756
H       -7.70267097       0.99950187      -1.12878495
H       -8.62052460       2.11979063      -0.06280660
C       -5.84825587       1.22882681       1.42121132
H       -5.01122149       1.23433716       2.02097103
O       -4.72325493       1.67239493       5.12750147
H       -5.05633791       2.33847822       5.73959042
9
Properties=species:S:1:pos:R:3 energy=-723.0108140373981 pbc="F F F"
C       -8.00489253       1.18112529      -0.09218386
C       -6.84262659       1.26371659       0.75675814
H       -8.59167352       0.31479815       0.25516978
H       -7.68039198       1.01641143      -1.12650596
H       -8.62037625       2.11425912      -0.05939705
C       -5.86451239       1.23045354       1.45425650
H       -5.03672110       1.23669535       2.06528691
O       -4.70145387       1.66539059       5.09995282
H       -5.06727178       2.33818993       5.68745269
9
Properties=species:S:1:pos:R:3 energy=-723.015579489739 pbc="F F F"
C       -7.99743029       1.18203398      -0.09154112
C       -6.84844055       1.26212265       0.77482418
H       -8.58408235       0.30769650       0.23350453
H       -7.65819500       1.03327717      -1.12358873
H       -8.62002704       2.10855277      -0.05605787
C       -5.88109706       1.23203936       1.48718825
H       -5.06285872       1.23907723       2.10927679
O       -4.68029475       1.65889739       5.07220732
H       -5.07749423       2.33734294       5.63497664
9
Properties=species:S:1:pos:R:3 energy=-723.0206031767922 pbc="F F F"
C       -7.98969408       1.18300993      -0.09054429
C       -6.85431177       1.26034037       0.79281279
H       -8.57600652       0.30095283       0.21194883
H       -7.63608524       1.05010413      -1.12012197
H       -8.61951746       2.10270757      -0.05277437
C       -5.89799084       1.23359461       1.52001341
H       -5.08953342       1.24147792       2.15303195
O       -4.65986223       1.65289583       5.04414381
H       -5.08691843       2.33595681       5.58227983
9
Properties=species:S:1:pos:R:3 energy=-723.0258240933656 pbc="F F F"
C       -7.98167113       1.18399637      -0.08921199
C       -6.86023617       1.25841973       0.81074508
H       -8.56753936       0.29452730       0.19047970
H       -7.61406788       1.06689732      -1.11619437
H       -8.61888805       2.09675954      -0.04953188
C       -5.91517468       1.23512964       1.55273882
H       -5.11664425       1.24389254       2.19664366
O       -4.64024095       1.64736644       5.01564114
H       -5.09545752       2.33405112       5.52947984
9
Properties=species:S:1:pos:R:3 energy=-723.0353100316115 pbc="F F F"
C       -7.97334868       1.18493654      -0.08756290
C       -6.86620968       1.25641075       0.82864213
H       -8.55877417       0.28838007       0.16907417
H       -7.59214813       1.08366177      -1.11189461
H       -8.61817928       2.09074466      -0.04631572
C       -5.93262957       1.23665479       1.58537132
H       -5.14409027       1.24631622       2.24020319
O       -4.62151552       1.64228974       4.98657819
H       -5.10302469       2.33164545       5.47669422
9
Properties=species:S:1:pos:R:3 energy=-723.0411405146031 pbc="F F F"
C       -7.96473611       1.18578733      -0.08563126
C       -6.87222611       1.25435199       0.84652137
H       -8.54977974       0.28248708       0.14772041
H       -7.57033704       1.10039660      -1.10728588
H       -8.61741896       2.08468827      -0.04311597
C       -5.95033796       1.23817665       1.61791209
H       -5.17178005       1.24874617       2.28378922
O       -4.60373055       1.63763668       4.95686536
H       -5.10957348       2.32876922       5.42401466
9
Properties=species:S:1:pos:R:3 energy=-723.0471231965636 pbc="F F F"
C       -7.95590643       1.18654487      -0.08349623
C       -6.87827325       1.25224916       0.86438973
H       -8.54055428       0.27686954       0.12643858
H       -7.54866259       1.11708399      -1.10235808
H       -8.61659837       2.07858504      -0.03993645
C       -5.96828661       1.23969099       1.65034605
H       -5.19964947       1.25118558       2.32744424
O       -4.58681553       1.63335069       4.92650372
H       -5.11517347       2.32548014       5.37145844
9
Properties=species:S:1:pos:R:3 energy=-723.053170517291 pbc="F F F"
C       -7.94694403       1.18721231      -0.08124499
C       -6.88433782       1.25010206       0.88225225
H       -8.53108338       0.27155677       0.10525456
H       -7.52715572       1.13370309      -1.09708801
H       -8.61570227       2.07242414      -0.03678343
C       -5.98646306       1.24119166       1.68265522
H       -5.22763928       1.25363871       2.37120427
O       -4.57067942       1.62937033       4.89551056
H       -5.11991502       2.32184094       5.31902956
9
Properties=species:S:1:pos:R:3 energy=-723.0591693775765 pbc="F F F"
C       -7.93793330       1.18779279      -0.07896471
C       -6.89040654       1.24791054       0.90011399
H       -8.52135264       0.26657806       0.08419426
H       -7.50584742       1.15023304      -1.09145246
H       -8.61471540       2.06619475      -0.03366315
C       -6.00485484       1.24267249       1.71482160
H       -5.25569027       1.25610983       2.41510533
O       -4.55523115       1.62563410       4.86390314
H       -5.12388844       2.31791438       5.26673200
9
Properties=species:S:1:pos:R:3 energy=-723.0649559433638 pbc="F F F"
C       -7.92895863       1.18828946      -0.07674257
C       -6.89646610       1.24567441       0.91797999
H       -8.51134766       0.26196275       0.06328355
H       -7.48476866       1.16665301      -1.08542824
H       -8.61362253       2.05988605      -0.03058188
C       -6.02344948       1.24412735       1.74682721
H       -5.28374318       1.25860320       2.45918342
O       -4.54037969       1.62208054       4.83169875
H       -5.12718408       2.31376323       5.21456977
9
Properties=species:S:1:pos:R:3 energy=-723.070272465971 pbc="F F F"
C       -7.92010442       1.18870547      -0.07466574
C       -6.90250323       1.24339350       0.93585530
H       -8.50105403       0.25774013       0.04254832
H       -7.46395041       1.18294213      -1.07899213
H       -8.61240839       2.05348722      -0.02754589
C       -6.04223451       1.24555007       1.77865405
H       -5.31173878       1.26112309       2.50347457
O       -4.52603396       1.61864818       4.79891466
H       -5.12989226       2.30945022       5.16254684
9
Properties=species:S:1:pos:R:3 energy=-723.0747225370841 pbc="F F F"
C       -7.91145505       1.18904395      -0.07282139
C       -6.90850465       1.24106764       0.95374498
H       -8.49045736       0.25393951       0.02201446
H       -7.44342363       1.19907956      -1.07212094
H       -8.61105776       2.04698744      -0.02456144
C       -6.06119747       1.24693449       1.81028415
H       -5.33961784       1.26367374       2.54801480