9
Properties=species:S:1:pos:R:3:momenta:R:3:forces:R:3 pbc="F F F"
C       -7.07150864       0.59551239       0.66594366       0.74678255      -0.50929867      -0.04868206       0.01049695       0.00033538       0.01646484
C       -5.86887445       0.89252936       1.36154747       0.32752758       0.68889790      -0.46203943      -0.00475904       0.01167495      -0.00578350
H       -7.45242235      -0.41459754       0.90524246       0.10759034       0.05660161      -0.07761038      -0.00739530      -0.00282738       0.00039415
H       -6.91344880       0.62602664      -0.43070654      -0.28546228      -0.06158723       0.00195075      -0.00293367      -0.00233954      -0.01164160
H       -7.87250855       1.32428209       0.89220238       0.13889117       0.00068976      -0.23980111      -0.00233220      -0.00568738       0.00214950
C       -4.86627275       1.14698901       2.08616591       0.55750549      -0.60154565       3.76156699      -0.86635603      -0.18405564       3.68910308
H       -3.84840878       1.40406242       2.18019096       0.23395286      -0.02322483       0.04379632       0.00888850       0.00151757       0.00202900
O       -5.26766224       1.06151039       3.77654527       0.69444111       0.21947466      -0.66221680       0.85989543       0.17005185      -3.69331252
H       -6.18500720       0.75404511       3.80998018       0.03549989       0.01503304      -0.50690168       0.00449536       0.01133020       0.00059705
