2
Properties=species:S:1:pos:R:3 energy=-3083.521083013755 pbc="F F F"
C        1.14769600       0.01668700       0.05466000
O        2.28732400       0.01668700       0.05466000
