 Entering Gaussian System, Link 0=g09
 Initial command:
 /cm/shared/apps/Gaussian09/g09/l1.exe "/local/Gau-43571.inp" -scrdir="/local/"
 Entering Link 1 = /cm/shared/apps/Gaussian09/g09/l1.exe PID=     43572.
  
 Copyright (c) 1988,1990,1992,1993,1995,1998,2003,2009,2013,
            Gaussian, Inc.  All Rights Reserved.
  
 This is part of the Gaussian(R) 09 program.  It is based on
 the Gaussian(R) 03 system (copyright 2003, Gaussian, Inc.),
 the Gaussian(R) 98 system (copyright 1998, Gaussian, Inc.),
 the Gaussian(R) 94 system (copyright 1995, Gaussian, Inc.),
 the Gaussian 92(TM) system (copyright 1992, Gaussian, Inc.),
 the Gaussian 90(TM) system (copyright 1990, Gaussian, Inc.),
 the Gaussian 88(TM) system (copyright 1988, Gaussian, Inc.),
 the Gaussian 86(TM) system (copyright 1986, Carnegie Mellon
 University), and the Gaussian 82(TM) system (copyright 1983,
 Carnegie Mellon University). Gaussian is a federally registered
 trademark of Gaussian, Inc.
  
 This software contains proprietary and confidential information,
 including trade secrets, belonging to Gaussian, Inc.
  
 This software is provided under written license and may be
 used, copied, transmitted, or stored only in accord with that
 written license.
  
 The following legend is applicable only to US Government
 contracts under FAR:
  
                    RESTRICTED RIGHTS LEGEND
  
 Use, reproduction and disclosure by the US Government is
 subject to restrictions as set forth in subparagraphs (a)
 and (c) of the Commercial Computer Software - Restricted
 Rights clause in FAR 52.227-19.
  
 Gaussian, Inc.
 340 Quinnipiac St., Bldg. 40, Wallingford CT 06492
  
  
 ---------------------------------------------------------------
 Warning -- This program may not be used in any manner that
 competes with the business of Gaussian, Inc. or will provide
 assistance to any competitor of Gaussian, Inc.  The licensee
 of this program is prohibited from giving any competitor of
 Gaussian, Inc. access to this program.  By using this program,
 the user acknowledges that Gaussian, Inc. is engaged in the
 business of creating and licensing software in the field of
 computational chemistry and represents and warrants to the
 licensee that it is not a competitor of Gaussian, Inc. and that
 it will not use this program in any manner prohibited above.
 ---------------------------------------------------------------
  

 Cite this work as:
 Gaussian 09, Revision D.01,
 M. J. Frisch, G. W. Trucks, H. B. Schlegel, G. E. Scuseria, 
 M. A. Robb, J. R. Cheeseman, G. Scalmani, V. Barone, B. Mennucci, 
 G. A. Petersson, H. Nakatsuji, M. Caricato, X. Li, H. P. Hratchian, 
 A. F. Izmaylov, J. Bloino, G. Zheng, J. L. Sonnenberg, M. Hada, 
 M. Ehara, K. Toyota, R. Fukuda, J. Hasegawa, M. Ishida, T. Nakajima, 
 Y. Honda, O. Kitao, H. Nakai, T. Vreven, J. A. Montgomery, Jr., 
 J. E. Peralta, F. Ogliaro, M. Bearpark, J. J. Heyd, E. Brothers, 
 K. N. Kudin, V. N. Staroverov, T. Keith, R. Kobayashi, J. Normand, 
 K. Raghavachari, A. Rendell, J. C. Burant, S. S. Iyengar, J. Tomasi, 
 M. Cossi, N. Rega, J. M. Millam, M. Klene, J. E. Knox, J. B. Cross, 
 V. Bakken, C. Adamo, J. Jaramillo, R. Gomperts, R. E. Stratmann, 
 O. Yazyev, A. J. Austin, R. Cammi, C. Pomelli, J. W. Ochterski, 
 R. L. Martin, K. Morokuma, V. G. Zakrzewski, G. A. Voth, 
 P. Salvador, J. J. Dannenberg, S. Dapprich, A. D. Daniels, 
 O. Farkas, J. B. Foresman, J. V. Ortiz, J. Cioslowski, 
 and D. J. Fox, Gaussian, Inc., Wallingford CT, 2013.
 
 ******************************************
 Gaussian 09:  ES64L-G09RevD.01 24-Apr-2013
                17-Feb-2021 
 ******************************************
 %nprocshared=1
 Will use up to    1 processors via shared memory.
 ----------------------------------------------------------------------
 #P pm6 scf=qc opt(calcall, ts, noeigentest, cartesian,maxcycle=100) No
 Symm
 ----------------------------------------------------------------------
 1/5=1,6=100,10=4,11=1,14=-1,18=10,26=1,38=1/1,3;
 2/12=2,15=1,17=6,18=5,29=2,40=1/2;
 3/5=2,16=1,25=1,41=3900000,71=2,140=1/1,2,3;
 4/35=1/1;
 5/5=2,8=3,35=1,38=5/8;
 8/6=4,10=90,11=11/1;
 11/6=1,8=1,9=11,15=111,16=1,31=1/1,2,10;
 10/6=1,31=1/2;
 6/7=2,8=2,9=2,10=2,18=1,28=1/1;
 7/7=1,10=1,25=1,30=1/1,2,3,16;
 1/5=1,6=100,10=4,11=1,14=-1,18=10,26=1/3(3);
 2/15=1,29=1/2;
 7/7=1,8=1,9=1,25=1,30=1,44=-1/16;
 99/12=1/99;
 2/15=1,29=1/2;
 3/5=2,16=1,25=1,41=3900000,71=2,135=20,140=1/1,2,3;
 4/5=5,16=3,35=1/1;
 5/5=2,8=3,35=1,38=5/8;
 8/6=4,10=90,11=11/1;
 11/6=1,8=1,9=11,15=111,16=1,31=1/1,2,10;
 10/6=1,31=1/2;
 7/7=1,10=1,25=1,30=1/1,2,3,16;
 1/5=1,6=100,10=4,11=1,14=-1,18=10,26=1/3(-8);
 2/15=1,29=1/2;
 6/7=2,8=2,9=2,10=2,18=1,19=2,28=1/1;
 7/7=1,8=1,9=1,25=1,30=1,44=-1/16;
 99/12=1/99;
 Leave Link    1 at Wed Feb 17 08:21:13 2021, MaxMem=           0 cpu:         0.0
 (Enter /cm/shared/apps/Gaussian09/g09/l101.exe)
 ------------------------------
 Gaussian input prepared by ASE
 ------------------------------
 Symbolic Z-matrix:
 Charge =  0 Multiplicity = 2
 O                     1.15553   1.84333   2.96875 
 C                     0.98303   1.52717   1.83787 
 C                     0.34474   2.24236   0.69252 
 C                    -1.05202   1.68309   0.39048 
 C                    -1.09628   0.16358   0.19825 
 C                    -0.1923   -0.353    -0.915 
 H                    -0.22347   0.28303  -1.83028 
 C                    -0.5534   -1.80523  -1.27754 
 O                    -1.67018  -2.05733  -1.669 
 C                     0.52402  -2.82388  -1.1312 
 H                     1.41144   0.34828   1.44473 
 H                     0.28361   3.33092   0.90482 
 H                     0.9953    2.13454  -0.20718 
 H                    -1.74629   1.95961   1.21228 
 H                    -1.44651   2.18866  -0.51546 
 H                    -0.8265   -0.35395   1.1449 
 H                    -2.14574  -0.14405  -0.0178 
 H                     1.36247  -2.6286   -1.81698 
 H                     0.96267  -2.80131  -0.11729 
 H                     0.15601  -3.84075  -1.32558 
 O                     1.53325  -0.66933   0.61343 
 O                     1.24062  -0.22713  -0.58471 
 
 NAtoms=     22 NQM=       22 NQMF=       0 NMMI=      0 NMMIF=      0
                NMic=       0 NMicF=      0.
                    Isotopes and Nuclear Properties:
 (Nuclear quadrupole moments (NQMom) in fm**2, nuclear magnetic moments (NMagM)
  in nuclear magnetons)

  Atom         1           2           3           4           5           6           7           8           9          10
 IAtWgt=          16          12          12          12          12          12           1          12          16          12
 AtmWgt=  15.9949146  12.0000000  12.0000000  12.0000000  12.0000000  12.0000000   1.0078250  12.0000000  15.9949146  12.0000000
 NucSpn=           0           0           0           0           0           0           1           0           0           0
 AtZEff=   0.0000000   0.0000000   0.0000000   0.0000000   0.0000000   0.0000000   0.0000000   0.0000000   0.0000000   0.0000000
 NQMom=    0.0000000   0.0000000   0.0000000   0.0000000   0.0000000   0.0000000   0.0000000   0.0000000   0.0000000   0.0000000
 NMagM=    0.0000000   0.0000000   0.0000000   0.0000000   0.0000000   0.0000000   2.7928460   0.0000000   0.0000000   0.0000000
 AtZNuc=   8.0000000   6.0000000   6.0000000   6.0000000   6.0000000   6.0000000   1.0000000   6.0000000   8.0000000   6.0000000

  Atom        11          12          13          14          15          16          17          18          19          20
 IAtWgt=           1           1           1           1           1           1           1           1           1           1
 AtmWgt=   1.0078250   1.0078250   1.0078250   1.0078250   1.0078250   1.0078250   1.0078250   1.0078250   1.0078250   1.0078250
 NucSpn=           1           1           1           1           1           1           1           1           1           1
 AtZEff=   0.0000000   0.0000000   0.0000000   0.0000000   0.0000000   0.0000000   0.0000000   0.0000000   0.0000000   0.0000000
 NQMom=    0.0000000   0.0000000   0.0000000   0.0000000   0.0000000   0.0000000   0.0000000   0.0000000   0.0000000   0.0000000
 NMagM=    2.7928460   2.7928460   2.7928460   2.7928460   2.7928460   2.7928460   2.7928460   2.7928460   2.7928460   2.7928460
 AtZNuc=   1.0000000   1.0000000   1.0000000   1.0000000   1.0000000   1.0000000   1.0000000   1.0000000   1.0000000   1.0000000

  Atom        21          22
 IAtWgt=          16          16
 AtmWgt=  15.9949146  15.9949146
 NucSpn=           0           0
 AtZEff=   0.0000000   0.0000000
 NQMom=    0.0000000   0.0000000
 NMagM=    0.0000000   0.0000000
 AtZNuc=   8.0000000   8.0000000
 Leave Link  101 at Wed Feb 17 08:21:13 2021, MaxMem=    33554432 cpu:         0.1
 (Enter /cm/shared/apps/Gaussian09/g09/l103.exe)

 GradGradGradGradGradGradGradGradGradGradGradGradGradGradGradGradGradGrad
 Berny optimization.
 Initialization pass.
 No Z-matrix variables, so optimization will use Cartesian coordinates.
 Trust Radius=3.00D-01 FncErr=1.00D-07 GrdErr=1.00D-07
 Number of steps in this run=    100 maximum allowed number of steps=    132.
 Search for a saddle point of order  1.
 GradGradGradGradGradGradGradGradGradGradGradGradGradGradGradGradGradGrad

 Leave Link  103 at Wed Feb 17 08:21:13 2021, MaxMem=    33554432 cpu:         0.0
 (Enter /cm/shared/apps/Gaussian09/g09/l202.exe)
 ---------------------------------------------------------------------------------------------------
                            Z-MATRIX (ANGSTROMS AND DEGREES)
   CD    Cent   Atom    N1       Length/X        N2       Alpha/Y        N3        Beta/Z          J
 ---------------------------------------------------------------------------------------------------
      1      1  O        0   1.155529          1.843327          2.968748
      2      2  C        0   0.983026          1.527173          1.837875
      3      3  C        0   0.344743          2.242358          0.692521
      4      4  C        0  -1.052022          1.683085          0.390482
      5      5  C        0  -1.096277          0.163584          0.198252
      6      6  C        0  -0.192303         -0.353005         -0.914999
      7      7  H        0  -0.223465          0.283034         -1.830279
      8      8  C        0  -0.553404         -1.805227         -1.277536
      9      9  O        0  -1.670178         -2.057333         -1.668999
     10     10  C        0   0.524025         -2.823879         -1.131200
     11     11  H        0   1.411442          0.348282          1.444727
     12     12  H        0   0.283609          3.330916          0.904817
     13     13  H        0   0.995302          2.134538         -0.207183
     14     14  H        0  -1.746292          1.959608          1.212279
     15     15  H        0  -1.446512          2.188658         -0.515462
     16     16  H        0  -0.826500         -0.353954          1.144897
     17     17  H        0  -2.145737         -0.144046         -0.017801
     18     18  H        0   1.362469         -2.628601         -1.816980
     19     19  H        0   0.962670         -2.801309         -0.117287
     20     20  H        0   0.156010         -3.840752         -1.325584
     21     21  O        0   1.533248         -0.669327          0.613427
     22     22  O        0   1.240618         -0.227129         -0.584712
 ---------------------------------------------------------------------------------------------------
                         Z-Matrix orientation:                         
 ---------------------------------------------------------------------
 Center     Atomic      Atomic             Coordinates (Angstroms)
 Number     Number       Type             X           Y           Z
 ---------------------------------------------------------------------
      1          8           0        1.155529    1.843327    2.968748
      2          6           0        0.983026    1.527173    1.837875
      3          6           0        0.344743    2.242358    0.692521
      4          6           0       -1.052022    1.683085    0.390482
      5          6           0       -1.096277    0.163584    0.198252
      6          6           0       -0.192303   -0.353005   -0.914999
      7          1           0       -0.223465    0.283034   -1.830279
      8          6           0       -0.553404   -1.805227   -1.277536
      9          8           0       -1.670178   -2.057333   -1.668999
     10          6           0        0.524025   -2.823879   -1.131200
     11          1           0        1.411442    0.348282    1.444727
     12          1           0        0.283609    3.330916    0.904817
     13          1           0        0.995302    2.134538   -0.207183
     14          1           0       -1.746292    1.959608    1.212279
     15          1           0       -1.446512    2.188658   -0.515462
     16          1           0       -0.826500   -0.353954    1.144897
     17          1           0       -2.145737   -0.144046   -0.017801
     18          1           0        1.362469   -2.628601   -1.816980
     19          1           0        0.962670   -2.801309   -0.117287
     20          1           0        0.156010   -3.840752   -1.325584
     21          8           0        1.533248   -0.669327    0.613427
     22          8           0        1.240618   -0.227129   -0.584712
 ---------------------------------------------------------------------
                    Distance matrix (angstroms):
                    1          2          3          4          5
     1  O    0.000000
     2  C    1.186838   0.000000
     3  C    2.449043   1.493562   0.000000
     4  C    3.398002   2.502134   1.534590   0.000000
     5  C    3.945607   2.978462   2.577236   1.532252   0.000000
     6  C    4.660903   3.534796   3.099749   2.566917   1.524258
     7  H    5.231329   4.056951   3.244431   2.752895   2.211563
     8  C    5.853488   4.813657   4.590287   3.898619   2.519698
     9  O    6.686439   5.673300   5.303209   4.314430   2.957780
    10  C    6.244292   5.287508   5.387472   5.011205   3.649350
    11  H    2.150184   1.314492   2.300257   2.993624   2.806504
    12  H    2.689420   2.147852   1.110751   2.182612   3.526374
    13  H    3.193277   2.133378   1.115490   2.180034   2.902368
    14  H    3.394005   2.833292   2.173137   1.110777   2.162515
    15  H    4.362292   3.446507   2.161181   1.109937   2.175541
    16  H    3.476049   2.700600   2.883971   2.183926   1.112097
    17  H    4.875191   4.003206   3.521643   2.168252   1.114756
    18  H    6.553180   5.547288   5.573114   5.412328   4.231181
    19  H    5.579735   4.749613   5.145502   4.942328   3.623454
    20  H    7.193683   6.285384   6.411910   5.909061   4.463744
    21  O    3.464627   2.574224   3.145903   3.502452   2.789357
    22  O    4.113527   3.002142   2.921006   3.139446   2.495350
                    6          7          8          9         10
     6  C    0.000000
     7  H    1.115013   0.000000
     8  C    1.539733   2.185228   0.000000
     9  O    2.378522   2.756140   1.209953   0.000000
    10  C    2.581683   3.271141   1.489939   2.385655   0.000000
    11  H    2.938045   3.660989   3.988601   4.997865   4.181568
    12  H    4.136363   4.126434   5.642980   6.282916   6.487270
    13  H    2.845923   2.747345   4.366451   5.178173   5.065749
    14  H    3.505478   3.793028   4.668634   4.944024   5.790335
    15  H    2.862293   2.618395   4.162874   4.405577   5.421040
    16  H    2.155314   3.101786   2.837068   3.395777   3.620092
    17  H    2.159753   2.676304   2.623353   2.571630   3.943196
    18  H    2.899866   3.315567   2.153953   3.089530   1.100644
    19  H    2.822145   3.722154   2.153332   3.145346   1.104961
    20  H    3.529063   4.171850   2.156140   2.575555   1.098749
    21  O    2.326729   3.156696   3.036465   4.171087   2.950313
    22  O    1.475872   1.988780   2.487753   3.605283   2.748685
                   11         12         13         14         15
    11  H    0.000000
    12  H    3.234133   0.000000
    13  H    2.468337   1.781676   0.000000
    14  H    3.552701   2.468910   3.092217   0.000000
    15  H    3.923930   2.513019   2.461792   1.768452   0.000000
    16  H    2.364618   3.855937   3.367443   2.490608   3.099368
    17  H    3.877486   4.339160   3.885091   2.469416   2.485576
    18  H    4.416216   6.639877   5.041206   6.316049   5.726282
    19  H    3.544179   6.253799   4.936773   5.636715   5.555400
    20  H    5.176750   7.511578   6.136719   6.610876   6.291118
    21  O    1.319631   4.201006   2.970597   4.245622   4.280355
    22  O    2.116341   3.974198   2.404200   4.114927   3.614068
                   16         17         18         19         20
    16  H    0.000000
    17  H    1.770964   0.000000
    18  H    4.328778   4.660211   0.000000
    19  H    3.283867   4.090616   1.754601   0.000000
    20  H    4.384788   4.546864   1.779416   1.786372   0.000000
    21  O    2.439330   3.769522   3.126467   2.324832   3.964149
    22  O    2.698260   3.434486   2.701926   2.630997   3.844937
                   21         22
    21  O    0.000000
    22  O    1.310232   0.000000
 Symmetry turned off by external request.
 Stoichiometry    C7H11O4(2)
 Framework group  C1[X(C7H11O4)]
 Deg. of freedom    60
 Full point group                 C1      NOp   1
 Rotational constants (GHZ):      2.0851926      0.6771925      0.5724276
 Leave Link  202 at Wed Feb 17 08:21:13 2021, MaxMem=    33554432 cpu:         0.0
 (Enter /cm/shared/apps/Gaussian09/g09/l301.exe)
 Standard basis: VSTO-6G (5D, 7F)
 Ernie: Thresh=  0.10000D-02 Tol=  0.10000D-05 Strict=F.
  NNHCO=     0 NNPyr=     0 NCTC=     0               EPep=         0.000000000
    EC=       314.272909457  ECS=         4.374592885   EG=         0.373162044
   EHC=         0.001436227  EAt=       -76.388488019  AtH=         3.199295150
 EPDDG=         0.000000000  ECC=       319.022100613 EAtT=        79.587783169
    55 basis functions,   330 primitive gaussians,    55 cartesian basis functions
    32 alpha electrons       31 beta electrons
       nuclear repulsion energy       398.6098837819 Hartrees.
 IExCor=    0 DFT=F Ex=HF Corr=None ExCW=0 ScaHFX=  1.000000
 ScaDFX=  1.000000  1.000000  1.000000  1.000000 ScalE2=  1.000000  1.000000
 IRadAn=      0 IRanWt=     -1 IRanGd=            0 ICorTp=0 IEmpDi=  4
 Integral buffers will be    131072 words long.
 Regular integral format.
 Two-electron integral symmetry is turned off.
 Leave Link  301 at Wed Feb 17 08:21:13 2021, MaxMem=    33554432 cpu:         0.0
 (Enter /cm/shared/apps/Gaussian09/g09/l302.exe)
 Do NDO integrals.
 NPDir=0 NMtPBC=     1 NCelOv=     1 NCel=       1 NClECP=     1 NCelD=      1
         NCelK=      1 NCelE2=     1 NClLst=     1 CellRange=     0.0.
 One-electron integrals computed using PRISM.
 NBasis=    55 RedAO= F EigKep=  0.00D+00  NBF=    55
 NBsUse=    55 1.00D-04 EigRej=  0.00D+00 NBFU=    55
 Leave Link  302 at Wed Feb 17 08:21:13 2021, MaxMem=    33554432 cpu:         0.1
 (Enter /cm/shared/apps/Gaussian09/g09/l303.exe)
 DipDrv:  MaxL=1.
 Leave Link  303 at Wed Feb 17 08:21:13 2021, MaxMem=    33554432 cpu:         0.0
 (Enter /cm/shared/apps/Gaussian09/g09/l401.exe)
 Simple Huckel Guess.
 JPrj=0 DoOrth=F DoCkMO=F.
 Initial guess <Sx>= 0.0000 <Sy>= 0.0000 <Sz>= 0.5000 <S**2>= 0.7500 S= 0.5000
 Leave Link  401 at Wed Feb 17 08:21:13 2021, MaxMem=    33554432 cpu:         0.0
 (Enter /cm/shared/apps/Gaussian09/g09/l508.exe)
 Direct SCF.
 Tight linear equation convergence will be used.
 UPM6 wavefunction.
 Quadratic Convergence SCF Method.
 Line search only if initial step raises energy.
 Two-electron integral symmetry not used.
 ReadGW:  IGet=1 IStart=       59293 Next=       59293 LGW=           0.
 Keep J ints in memory in canonical form, NReq=909807.
 FoFCou: FMM=F IPFlag=           0 FMFlag=           0 FMFlg1=           0
         NFxFlg=           0 DoJE=F BraDBF=F KetDBF=F FulRan=T
         wScrn=  0.000000 ICntrl=     600 IOpCl=  2 I1Cent=           0 NGrid=           0
         NMat0=    1 NMatS0=    121 NMatT0=    0 NMatD0=    1 NMtDS0=    0 NMtDT0=    0
 Symmetry not used in FoFCou.
 Iteration   1 EE= 0.514303214914492                                    Grad=5.297D-01 Max rot=    3.5023 deg.
 Gradient too large for Newton-Raphson -- use scaled steepest descent instead.
 Alpha Gap=     0.325 HL deriv= 1.03D-03
  Beta Gap=     0.296 HL deriv= 4.15D-02
     ILin= 1 X=0.000D+00 Y= 5.143032149145D-01 DE= 0.00D+00 F= -7.14D-01
     ILin= 2 X=3.000D-01 Y= 3.172260597649D-01 DE=-1.97D-01 F= -5.98D-01
     ILin= 3 X=5.000D-01 Y= 2.061551354325D-01 DE=-3.08D-01 F= -5.12D-01
     ILin= 4 X=8.000D-01 Y= 7.332533169733D-02 DE=-4.41D-01 F= -3.71D-01
     ILin= 5 X=1.200D+00 Y=-3.406402434450D-02 DE=-5.48D-01 F= -1.62D-01
     ILin= 6 X=1.900D+00 Y=-6.501381233988D-03 DE=-5.21D-01 F=  2.48D-01
     An  expanding polynomial of degree  6 produced  1.4857
 Iteration   2 EE=-0.574188719019162E-01 Delta-E=       -0.571722086816 Grad=1.479D-01 Max rot=    1.1884 deg.
 Gradient too large for Newton-Raphson -- use scaled steepest descent instead.
 Alpha Gap=     0.347 HL deriv= 6.91D-04
  Beta Gap=     0.309 HL deriv= 3.73D-02
     ILin= 1 X=0.000D+00 Y=-5.741887190192D-02 DE= 0.00D+00 F= -5.60D-02
     ILin= 2 X=7.000D-01 Y=-8.684858980087D-02 DE=-2.94D-02 F= -2.80D-02
     ILin= 3 X=1.200D+00 Y=-9.580178501443D-02 DE=-3.84D-02 F= -7.75D-03
     ILin= 4 X=2.200D+00 Y=-8.310740955301D-02 DE=-2.57D-02 F=  3.32D-02
     An  expanding polynomial of degree  4 produced  1.3907
 Iteration   3 EE=-0.965392590320562E-01 Delta-E=       -0.039120387130 Grad=5.433D-02 Max rot=    0.5034 deg.
 Gradient too large for Newton-Raphson -- use scaled steepest descent instead.
 Alpha Gap=     0.354 HL deriv= 4.55D-04
  Beta Gap=     0.317 HL deriv= 6.71D-03
     ILin= 1 X=0.000D+00 Y=-9.653925903206D-02 DE= 0.00D+00 F= -8.51D-03
     ILin= 2 X=1.400D+00 Y=-1.020487268643D-01 DE=-5.51D-03 F=  6.80D-04
     Accept linear search using points  1 and  2.
     An  expanding polynomial of degree  2 produced  1.3526
     Minimum is close to point  2 DX= -4.74D-02 DF= -1.14D-05 DXR=  3.50D-02 DFR=  2.07D-03 which will be used.
 Iteration   4 EE=-0.102048726864325     Delta-E=       -0.005509467832 Grad=2.789D-02 Max rot=    0.2540 deg.
 Gradient too large for Newton-Raphson -- use scaled steepest descent instead.
 Alpha Gap=     0.356 HL deriv= 6.71D-04
  Beta Gap=     0.316 HL deriv= 1.25D-02
     ILin= 1 X=0.000D+00 Y=-1.020487268643D-01 DE= 0.00D+00 F= -2.17D-03
     ILin= 2 X=1.400D+00 Y=-1.034701921081D-01 DE=-1.42D-03 F=  1.36D-04
     Accept linear search using points  1 and  2.
     An  expanding polynomial of degree  2 produced  1.3626
     Minimum is close to point  2 DX= -3.74D-02 DF= -1.81D-06 DXR=  2.74D-02 DFR=  1.27D-03 which will be used.
 Iteration   5 EE=-0.103470192108148     Delta-E=       -0.001421465244 Grad=1.535D-02 Max rot=    0.1553 deg.
 Gradient too large for Newton-Raphson -- use scaled steepest descent instead.
 Alpha Gap=     0.358 HL deriv= 4.87D-04
  Beta Gap=     0.317 HL deriv= 4.50D-03
     ILin= 1 X=0.000D+00 Y=-1.034701921081D-01 DE= 0.00D+00 F= -6.90D-04
     ILin= 2 X=1.400D+00 Y=-1.039609610562D-01 DE=-4.91D-04 F= -1.05D-05
     Reject lnstep minimum 1.408D+00 FVal=-1.039609929275D-01 Lims=  0.00D+00  1.40D+00
     ILin= 3 X=2.700D+00 Y=-1.035621651407D-01 DE=-9.20D-05 F=  6.25D-04
     An  expanding polynomial of degree  3 produced  1.4200
     Minimum is close to point  2 DX=  2.00D-02 DF= -9.70D-08 DXR=  1.41D-02 DFR=  1.98D-04 which will be used.
 Iteration   6 EE=-0.103960961056202     Delta-E=       -0.000490768948 Grad=9.005D-03 Max rot=    0.1210 deg.
 QCNR:  CnvC1=3.85D-09 CnvC2=3.85D-08
 LinEq1:  Iter=  0 NonCon=     1 RMS=4.43D-04 Max=9.78D-03 NDo=     1
 AX will form     1 AO Fock derivatives at one time.
 LinEq1:  Iter=  1 NonCon=     1 RMS=1.16D-04 Max=8.99D-04 NDo=     1
 LinEq1:  Iter=  2 NonCon=     1 RMS=2.98D-05 Max=4.61D-04 NDo=     1
 LinEq1:  Iter=  3 NonCon=     1 RMS=6.05D-06 Max=4.61D-05 NDo=     1
 LinEq1:  Iter=  4 NonCon=     1 RMS=7.71D-07 Max=6.99D-06 NDo=     1
 LinEq1:  Iter=  5 NonCon=     1 RMS=1.49D-07 Max=1.93D-06 NDo=     1
 LinEq1:  Iter=  6 NonCon=     1 RMS=3.06D-08 Max=2.71D-07 NDo=     1
 LinEq1:  Iter=  7 NonCon=     1 RMS=6.77D-09 Max=6.85D-08 NDo=     1
 LinEq1:  Iter=  8 NonCon=     0 RMS=1.26D-09 Max=1.16D-08 NDo=     1
 Linear equations converged to 3.847D-09 3.847D-08 after     8 iterations.
 Angle between quadratic step and gradient=  49.13 degrees.
     ILin= 1 X=0.000D+00 Y=-1.039609610562D-01 DE= 0.00D+00 F= -8.82D-04
     ILin= 2 X=1.000D+00 Y=-1.043915049875D-01 DE=-4.31D-04 F=  3.22D-05
     Accept linear search using points  1 and  2.
     An  expanding polynomial of degree  2 produced  0.9660
     Minimum is close to point  2 DX= -3.40D-02 DF= -5.46D-07 DXR=  3.52D-02 DFR=  1.27D-03 which will be used.
 Iteration   7 EE=-0.104391504987461     Delta-E=       -0.000430543931 Grad=3.855D-04 Max rot=    0.0079 deg.
 QCNR:  CnvC1=3.85D-09 CnvC2=3.85D-08
 LinEq1:  Iter=  0 NonCon=     1 RMS=2.11D-05 Max=3.69D-04 NDo=     1
 LinEq1:  Iter=  1 NonCon=     1 RMS=3.61D-06 Max=6.59D-05 NDo=     1
 LinEq1:  Iter=  2 NonCon=     1 RMS=7.40D-07 Max=8.90D-06 NDo=     1
 LinEq1:  Iter=  3 NonCon=     1 RMS=1.57D-07 Max=1.68D-06 NDo=     1
 LinEq1:  Iter=  4 NonCon=     1 RMS=2.80D-08 Max=2.52D-07 NDo=     1
 LinEq1:  Iter=  5 NonCon=     1 RMS=5.47D-09 Max=5.25D-08 NDo=     1
 LinEq1:  Iter=  6 NonCon=     0 RMS=1.33D-09 Max=1.91D-08 NDo=     1
 Linear equations converged to 3.847D-09 3.847D-08 after     6 iterations.
 Angle between quadratic step and gradient=  35.73 degrees.
     ILin= 1 X=0.000D+00 Y=-1.043915049875D-01 DE= 0.00D+00 F= -2.18D-06
     ILin= 2 X=1.000D+00 Y=-1.043925956598D-01 DE=-1.09D-06 F= -6.55D-09
     Reject lnstep minimum 1.003D+00 FVal=-1.043925956697D-01 Lims=  0.00D+00  1.00D+00
     ILin= 3 X=2.000D+00 Y=-1.043915230625D-01 DE=-1.81D-08 F=  2.15D-06
     An  expanding polynomial of degree  3 produced  1.0042
     Minimum is close to point  2 DX=  4.18D-03 DF= -1.89D-11 DXR=  4.16D-03 DFR=  1.73D-05 which will be used.
 Iteration   8 EE=-0.104392595659817     Delta-E=       -0.000001090672 Grad=3.423D-06 Max rot=    0.0001 deg.
 QCNR:  CnvC1=3.42D-11 CnvC2=3.42D-10
 LinEq1:  Iter=  0 NonCon=     1 RMS=1.57D-07 Max=3.56D-06 NDo=     1
 LinEq1:  Iter=  1 NonCon=     1 RMS=4.76D-08 Max=7.84D-07 NDo=     1
 LinEq1:  Iter=  2 NonCon=     1 RMS=9.69D-09 Max=1.08D-07 NDo=     1
 LinEq1:  Iter=  3 NonCon=     1 RMS=1.94D-09 Max=1.89D-08 NDo=     1
 LinEq1:  Iter=  4 NonCon=     1 RMS=3.36D-10 Max=3.72D-09 NDo=     1
 LinEq1:  Iter=  5 NonCon=     1 RMS=6.74D-11 Max=1.16D-09 NDo=     1
 LinEq1:  Iter=  6 NonCon=     0 RMS=1.47D-11 Max=2.50D-10 NDo=     1
 Linear equations converged to 3.423D-11 3.423D-10 after     6 iterations.
 Angle between quadratic step and gradient=  53.38 degrees.
     ILin= 1 X=0.000D+00 Y=-1.043925956598D-01 DE= 0.00D+00 F= -9.45D-11
     ILin= 2 X=1.000D+00 Y=-1.043925957076D-01 DE=-4.78D-11
 Iteration   9 EE=-0.104392595707623     Delta-E=       -0.000000000048 Grad=2.212D-08 Max rot=    0.0000 deg.
 Rotation gradient small -- convergence achieved.
 SCF Done:  E(UPM6) = -0.104392595708     a.u. after    9 cycles
            Convg  =    0.2212D-07                    39 Fock formations.
              S**2 =  0.7946                  -V/T =  0.9972
 <Sx>= 0.0000 <Sy>= 0.0000 <Sz>= 0.5000 <S**2>= 0.7946 S= 0.5220
 <L.S>= 0.000000000000E+00
 Annihilation of the first spin contaminant:
 S**2 before annihilation     0.7946,   after     0.7505
 Leave Link  508 at Wed Feb 17 08:21:13 2021, MaxMem=    33554432 cpu:         0.1
 (Enter /cm/shared/apps/Gaussian09/g09/l801.exe)
 Range of M.O.s used for correlation:     1    55
 NBasis=    55 NAE=    32 NBE=    31 NFC=     0 NFV=     0
 NROrb=     55 NOA=    32 NOB=    31 NVA=    23 NVB=    24
 Leave Link  801 at Wed Feb 17 08:21:13 2021, MaxMem=    33554432 cpu:         0.0
 (Enter /cm/shared/apps/Gaussian09/g09/l1101.exe)
 Using compressed storage, NAtomX=    22.
 Will process     23 centers per pass.
 Leave Link 1101 at Wed Feb 17 08:21:13 2021, MaxMem=    33554432 cpu:         0.0
 (Enter /cm/shared/apps/Gaussian09/g09/l1102.exe)
 Symmetrizing basis deriv contribution to polar:
 IMax=3 JMax=2 DiffMx= 0.00D+00
 Leave Link 1102 at Wed Feb 17 08:21:13 2021, MaxMem=    33554432 cpu:         0.0
 (Enter /cm/shared/apps/Gaussian09/g09/l1110.exe)
 Forming Gx(P) for the SCF density, NAtomX=    22.
 Integral derivatives from FoFJK, PRISM(SPDF).
 Do as many integral derivatives as possible in FoFJK.
 G2DrvN: MDV=      33495261.
 G2DrvN: will do    23 centers at a time, making    1 passes.
 Calling FoFCou, ICntrl=  3107 FMM=F I1Cent=   0 AccDes= 0.00D+00.
 FoFJK:  IHMeth=40 ICntrl=    3107 DoSepK=F KAlg= 0 I1Cent=   0 FoldK=F
 IRaf=         0 NMat=   1 IRICut=       1 DoRegI=T DoRafI=F ISym2E= 0.
 FoFCou: FMM=F IPFlag=           0 FMFlag=      100000 FMFlg1=           0
         NFxFlg=           0 DoJE=F BraDBF=F KetDBF=F FulRan=T
         wScrn=  0.000000 ICntrl=    3107 IOpCl=  1 I1Cent=           0 NGrid=           0
         NMat0=    1 NMatS0=      1 NMatT0=    0 NMatD0=    1 NMtDS0=    0 NMtDT0=    0
 Symmetry not used in FoFCou.
 End of G2Drv F.D. properties file   721 does not exist.
 End of G2Drv F.D. properties file   722 does not exist.
 End of G2Drv F.D. properties file   788 does not exist.
 Leave Link 1110 at Wed Feb 17 08:21:13 2021, MaxMem=    33554432 cpu:         0.0
 (Enter /cm/shared/apps/Gaussian09/g09/l1002.exe)
 Minotr:  UHF open shell wavefunction.
          IDoAtm=1111111111111111111111
          Direct CPHF calculation.
          Differentiating once with respect to electric field.
                with respect to dipole field.
          Differentiating once with respect to nuclear coordinates.
          Electric field/nuclear overlap derivatives assumed to be zero.
          Requested convergence is 1.0D-08 RMS, and 1.0D-07 maximum.
          NewPWx=T KeepS1=F KeepF1=F KeepIn=T MapXYZ=F SortEE=F KeepMc=T.
          MDV=      33495207 using IRadAn=       2.
 Keep J ints in memory in canonical form, NReq=889842.
 FoFCou: FMM=F IPFlag=           0 FMFlag=           0 FMFlg1=           0
         NFxFlg=           0 DoJE=F BraDBF=F KetDBF=F FulRan=T
         wScrn=  0.000000 ICntrl=     600 IOpCl=  2 I1Cent=           0 NGrid=           0
         NMat0=    1 NMatS0=    121 NMatT0=    0 NMatD0=    1 NMtDS0=    0 NMtDT0=    0
 Symmetry not used in FoFCou.
          Solving linear equations separately, MaxMat=       0.
          There are    69 degrees of freedom in the 1st order CPHF.  IDoFFX=5 NUNeed=    69.
 LinEq1:  Iter=  0 NonCon=    69 RMS=2.21D-01 Max=5.09D+00 NDo=    69
 AX will form    69 AO Fock derivatives at one time.
 LinEq1:  Iter=  1 NonCon=    69 RMS=4.76D-02 Max=9.74D-01 NDo=    69
 LinEq1:  Iter=  2 NonCon=    69 RMS=1.25D-02 Max=1.68D-01 NDo=    69
 LinEq1:  Iter=  3 NonCon=    69 RMS=2.47D-03 Max=1.95D-02 NDo=    69
 LinEq1:  Iter=  4 NonCon=    69 RMS=4.87D-04 Max=4.88D-03 NDo=    69
 LinEq1:  Iter=  5 NonCon=    69 RMS=1.00D-04 Max=7.89D-04 NDo=    69
 LinEq1:  Iter=  6 NonCon=    69 RMS=1.97D-05 Max=1.81D-04 NDo=    69
 LinEq1:  Iter=  7 NonCon=    62 RMS=4.08D-06 Max=5.83D-05 NDo=    69
 LinEq1:  Iter=  8 NonCon=    34 RMS=9.00D-07 Max=1.12D-05 NDo=    69
 LinEq1:  Iter=  9 NonCon=     7 RMS=1.85D-07 Max=2.18D-06 NDo=    69
 LinEq1:  Iter= 10 NonCon=     3 RMS=4.25D-08 Max=4.02D-07 NDo=    69
 LinEq1:  Iter= 11 NonCon=     1 RMS=9.49D-09 Max=1.11D-07 NDo=    69
 LinEq1:  Iter= 12 NonCon=     0 RMS=1.82D-09 Max=1.66D-08 NDo=    69
 Linear equations converged to 1.000D-08 1.000D-07 after    12 iterations.
 FullF1:  Do perturbations    1 to     3.
 Isotropic polarizability for W=    0.000000       95.83 Bohr**3.
 End of Minotr F.D. properties file   721 does not exist.
 End of Minotr F.D. properties file   722 does not exist.
 End of Minotr F.D. properties file   788 does not exist.
 Leave Link 1002 at Wed Feb 17 08:21:14 2021, MaxMem=    33554432 cpu:         0.5
 (Enter /cm/shared/apps/Gaussian09/g09/l601.exe)
 Copying SCF densities to generalized density rwf, IOpCl= 1 IROHF=0.

 **********************************************************************

            Population analysis using the SCF density.

 **********************************************************************

 Alpha  occ. eigenvalues --   -1.22147  -1.18084  -1.15246  -1.08082  -1.07273
 Alpha  occ. eigenvalues --   -0.99984  -0.96772  -0.89363  -0.81510  -0.76050
 Alpha  occ. eigenvalues --   -0.73914  -0.67623  -0.66016  -0.64797  -0.61068
 Alpha  occ. eigenvalues --   -0.60449  -0.58509  -0.58028  -0.57182  -0.54792
 Alpha  occ. eigenvalues --   -0.53504  -0.52881  -0.50868  -0.49722  -0.48864
 Alpha  occ. eigenvalues --   -0.47518  -0.47306  -0.46085  -0.41745  -0.40146
 Alpha  occ. eigenvalues --   -0.37686  -0.34792
 Alpha virt. eigenvalues --   -0.00250   0.00738   0.01144   0.08781   0.08894
 Alpha virt. eigenvalues --    0.10065   0.11419   0.11588   0.13100   0.13323
 Alpha virt. eigenvalues --    0.14660   0.15542   0.16272   0.17052   0.17643
 Alpha virt. eigenvalues --    0.18004   0.18843   0.18954   0.19697   0.19785
 Alpha virt. eigenvalues --    0.20367   0.20871   0.23089
  Beta  occ. eigenvalues --   -1.20221  -1.18072  -1.13073  -1.07193  -1.02329
  Beta  occ. eigenvalues --   -0.98487  -0.96200  -0.88887  -0.80404  -0.74888
  Beta  occ. eigenvalues --   -0.73123  -0.66276  -0.65022  -0.63229  -0.60373
  Beta  occ. eigenvalues --   -0.59704  -0.57981  -0.56423  -0.55755  -0.54304
  Beta  occ. eigenvalues --   -0.52703  -0.51870  -0.50117  -0.48942  -0.48422
  Beta  occ. eigenvalues --   -0.47307  -0.46526  -0.45695  -0.39157  -0.37277
  Beta  occ. eigenvalues --   -0.34993
  Beta virt. eigenvalues --   -0.05646   0.00536   0.01079   0.02616   0.08859
  Beta virt. eigenvalues --    0.09938   0.10645   0.11583   0.11724   0.13232
  Beta virt. eigenvalues --    0.13359   0.15630   0.16104   0.16584   0.17231
  Beta virt. eigenvalues --    0.17745   0.18145   0.18854   0.18981   0.19791
  Beta virt. eigenvalues --    0.19863   0.20373   0.20872   0.23100
          Condensed to atoms (all electrons):
               1          2          3          4          5          6
     1  O    6.361069   0.000000   0.000000   0.000000   0.000000   0.000000
     2  C    0.000000   3.633373   0.000000   0.000000   0.000000   0.000000
     3  C    0.000000   0.000000   4.410926   0.000000   0.000000   0.000000
     4  C    0.000000   0.000000   0.000000   4.211157   0.000000   0.000000
     5  C    0.000000   0.000000   0.000000   0.000000   4.300005   0.000000
     6  C    0.000000   0.000000   0.000000   0.000000   0.000000   4.112939
     7  H    0.000000   0.000000   0.000000   0.000000   0.000000   0.000000
     8  C    0.000000   0.000000   0.000000   0.000000   0.000000   0.000000
     9  O    0.000000   0.000000   0.000000   0.000000   0.000000   0.000000
    10  C    0.000000   0.000000   0.000000   0.000000   0.000000   0.000000
    11  H    0.000000   0.000000   0.000000   0.000000   0.000000   0.000000
    12  H    0.000000   0.000000   0.000000   0.000000   0.000000   0.000000
    13  H    0.000000   0.000000   0.000000   0.000000   0.000000   0.000000
    14  H    0.000000   0.000000   0.000000   0.000000   0.000000   0.000000
    15  H    0.000000   0.000000   0.000000   0.000000   0.000000   0.000000
    16  H    0.000000   0.000000   0.000000   0.000000   0.000000   0.000000
    17  H    0.000000   0.000000   0.000000   0.000000   0.000000   0.000000
    18  H    0.000000   0.000000   0.000000   0.000000   0.000000   0.000000
    19  H    0.000000   0.000000   0.000000   0.000000   0.000000   0.000000
    20  H    0.000000   0.000000   0.000000   0.000000   0.000000   0.000000
    21  O    0.000000   0.000000   0.000000   0.000000   0.000000   0.000000
    22  O    0.000000   0.000000   0.000000   0.000000   0.000000   0.000000
               7          8          9         10         11         12
     1  O    0.000000   0.000000   0.000000   0.000000   0.000000   0.000000
     2  C    0.000000   0.000000   0.000000   0.000000   0.000000   0.000000
     3  C    0.000000   0.000000   0.000000   0.000000   0.000000   0.000000
     4  C    0.000000   0.000000   0.000000   0.000000   0.000000   0.000000
     5  C    0.000000   0.000000   0.000000   0.000000   0.000000   0.000000
     6  C    0.000000   0.000000   0.000000   0.000000   0.000000   0.000000
     7  H    0.828868   0.000000   0.000000   0.000000   0.000000   0.000000
     8  C    0.000000   3.450915   0.000000   0.000000   0.000000   0.000000
     9  O    0.000000   0.000000   6.480971   0.000000   0.000000   0.000000
    10  C    0.000000   0.000000   0.000000   4.623000   0.000000   0.000000
    11  H    0.000000   0.000000   0.000000   0.000000   0.806978   0.000000
    12  H    0.000000   0.000000   0.000000   0.000000   0.000000   0.821871
    13  H    0.000000   0.000000   0.000000   0.000000   0.000000   0.000000
    14  H    0.000000   0.000000   0.000000   0.000000   0.000000   0.000000
    15  H    0.000000   0.000000   0.000000   0.000000   0.000000   0.000000
    16  H    0.000000   0.000000   0.000000   0.000000   0.000000   0.000000
    17  H    0.000000   0.000000   0.000000   0.000000   0.000000   0.000000
    18  H    0.000000   0.000000   0.000000   0.000000   0.000000   0.000000
    19  H    0.000000   0.000000   0.000000   0.000000   0.000000   0.000000
    20  H    0.000000   0.000000   0.000000   0.000000   0.000000   0.000000
    21  O    0.000000   0.000000   0.000000   0.000000   0.000000   0.000000
    22  O    0.000000   0.000000   0.000000   0.000000   0.000000   0.000000
              13         14         15         16         17         18
     1  O    0.000000   0.000000   0.000000   0.000000   0.000000   0.000000
     2  C    0.000000   0.000000   0.000000   0.000000   0.000000   0.000000
     3  C    0.000000   0.000000   0.000000   0.000000   0.000000   0.000000
     4  C    0.000000   0.000000   0.000000   0.000000   0.000000   0.000000
     5  C    0.000000   0.000000   0.000000   0.000000   0.000000   0.000000
     6  C    0.000000   0.000000   0.000000   0.000000   0.000000   0.000000
     7  H    0.000000   0.000000   0.000000   0.000000   0.000000   0.000000
     8  C    0.000000   0.000000   0.000000   0.000000   0.000000   0.000000
     9  O    0.000000   0.000000   0.000000   0.000000   0.000000   0.000000
    10  C    0.000000   0.000000   0.000000   0.000000   0.000000   0.000000
    11  H    0.000000   0.000000   0.000000   0.000000   0.000000   0.000000
    12  H    0.000000   0.000000   0.000000   0.000000   0.000000   0.000000
    13  H    0.810739   0.000000   0.000000   0.000000   0.000000   0.000000
    14  H    0.000000   0.856044   0.000000   0.000000   0.000000   0.000000
    15  H    0.000000   0.000000   0.855964   0.000000   0.000000   0.000000
    16  H    0.000000   0.000000   0.000000   0.836953   0.000000   0.000000
    17  H    0.000000   0.000000   0.000000   0.000000   0.828623   0.000000
    18  H    0.000000   0.000000   0.000000   0.000000   0.000000   0.798742
    19  H    0.000000   0.000000   0.000000   0.000000   0.000000   0.000000
    20  H    0.000000   0.000000   0.000000   0.000000   0.000000   0.000000
    21  O    0.000000   0.000000   0.000000   0.000000   0.000000   0.000000
    22  O    0.000000   0.000000   0.000000   0.000000   0.000000   0.000000
              19         20         21         22
     1  O    0.000000   0.000000   0.000000   0.000000
     2  C    0.000000   0.000000   0.000000   0.000000
     3  C    0.000000   0.000000   0.000000   0.000000
     4  C    0.000000   0.000000   0.000000   0.000000
     5  C    0.000000   0.000000   0.000000   0.000000
     6  C    0.000000   0.000000   0.000000   0.000000
     7  H    0.000000   0.000000   0.000000   0.000000
     8  C    0.000000   0.000000   0.000000   0.000000
     9  O    0.000000   0.000000   0.000000   0.000000
    10  C    0.000000   0.000000   0.000000   0.000000
    11  H    0.000000   0.000000   0.000000   0.000000
    12  H    0.000000   0.000000   0.000000   0.000000
    13  H    0.000000   0.000000   0.000000   0.000000
    14  H    0.000000   0.000000   0.000000   0.000000
    15  H    0.000000   0.000000   0.000000   0.000000
    16  H    0.000000   0.000000   0.000000   0.000000
    17  H    0.000000   0.000000   0.000000   0.000000
    18  H    0.000000   0.000000   0.000000   0.000000
    19  H    0.788442   0.000000   0.000000   0.000000
    20  H    0.000000   0.804803   0.000000   0.000000
    21  O    0.000000   0.000000   6.283528   0.000000
    22  O    0.000000   0.000000   0.000000   6.094089
          Atomic-Atomic Spin Densities.
               1          2          3          4          5          6
     1  O    0.181403   0.000000   0.000000   0.000000   0.000000   0.000000
     2  C    0.000000   0.265838   0.000000   0.000000   0.000000   0.000000
     3  C    0.000000   0.000000   0.064443   0.000000   0.000000   0.000000
     4  C    0.000000   0.000000   0.000000  -0.004120   0.000000   0.000000
     5  C    0.000000   0.000000   0.000000   0.000000   0.005339   0.000000
     6  C    0.000000   0.000000   0.000000   0.000000   0.000000  -0.033523
     7  H    0.000000   0.000000   0.000000   0.000000   0.000000   0.000000
     8  C    0.000000   0.000000   0.000000   0.000000   0.000000   0.000000
     9  O    0.000000   0.000000   0.000000   0.000000   0.000000   0.000000
    10  C    0.000000   0.000000   0.000000   0.000000   0.000000   0.000000
    11  H    0.000000   0.000000   0.000000   0.000000   0.000000   0.000000
    12  H    0.000000   0.000000   0.000000   0.000000   0.000000   0.000000
    13  H    0.000000   0.000000   0.000000   0.000000   0.000000   0.000000
    14  H    0.000000   0.000000   0.000000   0.000000   0.000000   0.000000
    15  H    0.000000   0.000000   0.000000   0.000000   0.000000   0.000000
    16  H    0.000000   0.000000   0.000000   0.000000   0.000000   0.000000
    17  H    0.000000   0.000000   0.000000   0.000000   0.000000   0.000000
    18  H    0.000000   0.000000   0.000000   0.000000   0.000000   0.000000
    19  H    0.000000   0.000000   0.000000   0.000000   0.000000   0.000000
    20  H    0.000000   0.000000   0.000000   0.000000   0.000000   0.000000
    21  O    0.000000   0.000000   0.000000   0.000000   0.000000   0.000000
    22  O    0.000000   0.000000   0.000000   0.000000   0.000000   0.000000
               7          8          9         10         11         12
     1  O    0.000000   0.000000   0.000000   0.000000   0.000000   0.000000
     2  C    0.000000   0.000000   0.000000   0.000000   0.000000   0.000000
     3  C    0.000000   0.000000   0.000000   0.000000   0.000000   0.000000
     4  C    0.000000   0.000000   0.000000   0.000000   0.000000   0.000000
     5  C    0.000000   0.000000   0.000000   0.000000   0.000000   0.000000
     6  C    0.000000   0.000000   0.000000   0.000000   0.000000   0.000000
     7  H   -0.001957   0.000000   0.000000   0.000000   0.000000   0.000000
     8  C    0.000000   0.004489   0.000000   0.000000   0.000000   0.000000
     9  O    0.000000   0.000000   0.001348   0.000000   0.000000   0.000000
    10  C    0.000000   0.000000   0.000000   0.001725   0.000000   0.000000
    11  H    0.000000   0.000000   0.000000   0.000000  -0.132238   0.000000
    12  H    0.000000   0.000000   0.000000   0.000000   0.000000   0.009245
    13  H    0.000000   0.000000   0.000000   0.000000   0.000000   0.000000
    14  H    0.000000   0.000000   0.000000   0.000000   0.000000   0.000000
    15  H    0.000000   0.000000   0.000000   0.000000   0.000000   0.000000
    16  H    0.000000   0.000000   0.000000   0.000000   0.000000   0.000000
    17  H    0.000000   0.000000   0.000000   0.000000   0.000000   0.000000
    18  H    0.000000   0.000000   0.000000   0.000000   0.000000   0.000000
    19  H    0.000000   0.000000   0.000000   0.000000   0.000000   0.000000
    20  H    0.000000   0.000000   0.000000   0.000000   0.000000   0.000000
    21  O    0.000000   0.000000   0.000000   0.000000   0.000000   0.000000
    22  O    0.000000   0.000000   0.000000   0.000000   0.000000   0.000000
              13         14         15         16         17         18
     1  O    0.000000   0.000000   0.000000   0.000000   0.000000   0.000000
     2  C    0.000000   0.000000   0.000000   0.000000   0.000000   0.000000
     3  C    0.000000   0.000000   0.000000   0.000000   0.000000   0.000000
     4  C    0.000000   0.000000   0.000000   0.000000   0.000000   0.000000
     5  C    0.000000   0.000000   0.000000   0.000000   0.000000   0.000000
     6  C    0.000000   0.000000   0.000000   0.000000   0.000000   0.000000
     7  H    0.000000   0.000000   0.000000   0.000000   0.000000   0.000000
     8  C    0.000000   0.000000   0.000000   0.000000   0.000000   0.000000
     9  O    0.000000   0.000000   0.000000   0.000000   0.000000   0.000000
    10  C    0.000000   0.000000   0.000000   0.000000   0.000000   0.000000
    11  H    0.000000   0.000000   0.000000   0.000000   0.000000   0.000000
    12  H    0.000000   0.000000   0.000000   0.000000   0.000000   0.000000
    13  H   -0.002207   0.000000   0.000000   0.000000   0.000000   0.000000
    14  H    0.000000   0.000187   0.000000   0.000000   0.000000   0.000000
    15  H    0.000000   0.000000   0.000992   0.000000   0.000000   0.000000
    16  H    0.000000   0.000000   0.000000  -0.000337   0.000000   0.000000
    17  H    0.000000   0.000000   0.000000   0.000000  -0.000756   0.000000
    18  H    0.000000   0.000000   0.000000   0.000000   0.000000  -0.000081
    19  H    0.000000   0.000000   0.000000   0.000000   0.000000   0.000000
    20  H    0.000000   0.000000   0.000000   0.000000   0.000000   0.000000
    21  O    0.000000   0.000000   0.000000   0.000000   0.000000   0.000000
    22  O    0.000000   0.000000   0.000000   0.000000   0.000000   0.000000
              19         20         21         22
     1  O    0.000000   0.000000   0.000000   0.000000
     2  C    0.000000   0.000000   0.000000   0.000000
     3  C    0.000000   0.000000   0.000000   0.000000
     4  C    0.000000   0.000000   0.000000   0.000000
     5  C    0.000000   0.000000   0.000000   0.000000
     6  C    0.000000   0.000000   0.000000   0.000000
     7  H    0.000000   0.000000   0.000000   0.000000
     8  C    0.000000   0.000000   0.000000   0.000000
     9  O    0.000000   0.000000   0.000000   0.000000
    10  C    0.000000   0.000000   0.000000   0.000000
    11  H    0.000000   0.000000   0.000000   0.000000
    12  H    0.000000   0.000000   0.000000   0.000000
    13  H    0.000000   0.000000   0.000000   0.000000
    14  H    0.000000   0.000000   0.000000   0.000000
    15  H    0.000000   0.000000   0.000000   0.000000
    16  H    0.000000   0.000000   0.000000   0.000000
    17  H    0.000000   0.000000   0.000000   0.000000
    18  H    0.000000   0.000000   0.000000   0.000000
    19  H   -0.000527   0.000000   0.000000   0.000000
    20  H    0.000000   0.000089   0.000000   0.000000
    21  O    0.000000   0.000000   0.523442   0.000000
    22  O    0.000000   0.000000   0.000000   0.117206
 Mulliken charges and spin densities:
               1          2
     1  O   -0.361069   0.181403
     2  C    0.366627   0.265838
     3  C   -0.410926   0.064443
     4  C   -0.211157  -0.004120
     5  C   -0.300005   0.005339
     6  C   -0.112939  -0.033523
     7  H    0.171132  -0.001957
     8  C    0.549085   0.004489
     9  O   -0.480971   0.001348
    10  C   -0.623000   0.001725
    11  H    0.193022  -0.132238
    12  H    0.178129   0.009245
    13  H    0.189261  -0.002207
    14  H    0.143956   0.000187
    15  H    0.144036   0.000992
    16  H    0.163047  -0.000337
    17  H    0.171377  -0.000756
    18  H    0.201258  -0.000081
    19  H    0.211558  -0.000527
    20  H    0.195197   0.000089
    21  O   -0.283528   0.523442
    22  O   -0.094089   0.117206
 Sum of Mulliken charges =   0.00000   1.00000
 Mulliken charges and spin densities with hydrogens summed into heavy atoms:
               1          2
     1  O   -0.361069   0.181403
     2  C    0.559649   0.133601
     3  C   -0.043537   0.071480
     4  C    0.076834  -0.002942
     5  C    0.034418   0.004247
     6  C    0.058193  -0.035480
     8  C    0.549085   0.004489
     9  O   -0.480971   0.001348
    10  C   -0.014987   0.001206
    21  O   -0.283528   0.523442
    22  O   -0.094089   0.117206
 APT charges:
               1
     1  O   -1.024400
     2  C    1.844656
     3  C   -0.685155
     4  C   -0.152615
     5  C   -0.313768
     6  C   -0.125605
     7  H    0.113757
     8  C    1.256041
     9  O   -0.824634
    10  C   -1.021183
    11  H   -1.166791
    12  H    0.209910
    13  H    0.155468
    14  H    0.131452
    15  H    0.134177
    16  H    0.138776
    17  H    0.177709
    18  H    0.270215
    19  H    0.273041
    20  H    0.242454
    21  O    0.749638
    22  O   -0.383086
 Sum of APT charges =   0.00006
 APT charges with hydrogens summed into heavy atoms:
               1
     1  O   -1.024400
     2  C    0.677865
     3  C   -0.319776
     4  C    0.113014
     5  C    0.002716
     6  C   -0.011849
     8  C    1.256041
     9  O   -0.824634
    10  C   -0.235472
    21  O    0.749638
    22  O   -0.383086
 Charge=              0.0000 electrons
 Dipole moment (field-independent basis, Debye):
    X=              0.1267    Y=              1.9828    Z=             -1.1477  Tot=              2.2945
 N-N= 3.986098837819D+02 E-N=-7.169492351508D+02  KE=-3.744967747519D+01
  Exact polarizability:  67.238   0.264 107.000  16.117  53.906 113.242
 Approx polarizability:  51.099  -1.766  53.584  11.365  17.649  69.022
 Leave Link  601 at Wed Feb 17 08:21:14 2021, MaxMem=    33554432 cpu:         0.0
 (Enter /cm/shared/apps/Gaussian09/g09/l701.exe)
 Compute integral second derivatives.
 ... and contract with generalized density number  0.
 Leave Link  701 at Wed Feb 17 08:21:14 2021, MaxMem=    33554432 cpu:         0.1
 (Enter /cm/shared/apps/Gaussian09/g09/l702.exe)
 L702 exits ... SP integral derivatives will be done elsewhere.
 Leave Link  702 at Wed Feb 17 08:21:14 2021, MaxMem=    33554432 cpu:         0.0
 (Enter /cm/shared/apps/Gaussian09/g09/l703.exe)
 Compute integral second derivatives, UseDBF=F ICtDFT=           0.
 Integral derivatives from FoFJK, PRISM(SPDF).
 Calling FoFJK, ICntrl=    100127 FMM=F ISym2X=0 I1Cent= 0 IOpClX= 1 NMat=1 NMatS=1 NMatT=0.
 FoFJK:  IHMeth=40 ICntrl=  100127 DoSepK=F KAlg= 0 I1Cent=   0 FoldK=F
 IRaf=         0 NMat=   1 IRICut=       1 DoRegI=T DoRafI=F ISym2E= 0.
 FoFCou: FMM=F IPFlag=           0 FMFlag=      100000 FMFlg1=         800
         NFxFlg=           0 DoJE=F BraDBF=F KetDBF=F FulRan=T
         wScrn=  0.000000 ICntrl=  100127 IOpCl=  1 I1Cent=           0 NGrid=           0
         NMat0=    1 NMatS0=      1 NMatT0=    0 NMatD0=    1 NMtDS0=    0 NMtDT0=    0
 Symmetry not used in FoFCou.
 Leave Link  703 at Wed Feb 17 08:21:14 2021, MaxMem=    33554432 cpu:         0.0
 (Enter /cm/shared/apps/Gaussian09/g09/l716.exe)
 Dipole        = 4.98396516D-02 7.80087792D-01-4.51531412D-01
 Polarizability= 6.72375549D+01 2.63865508D-01 1.07000098D+02
                 1.61170357D+01 5.39058645D+01 1.13242481D+02
 HyperPolar    = 6.13660793D+00 3.24139263D+01 7.37223061D+01
                -6.89475453D+02 1.24401315D+01 1.07800846D+02
                -5.28339584D+02 1.34586927D+02-2.48337767D+02
                 1.01779695D+02
 -------------------------------------------------------------------
 Center     Atomic                   Forces (Hartrees/Bohr)
 Number     Number              X              Y              Z
 -------------------------------------------------------------------
      1        8          -0.000000081    0.000000111    0.000000857
      2        6           0.000000408   -0.000000111   -0.000000376
      3        6          -0.000000126    0.000000099   -0.000000092
      4        6          -0.000000205    0.000000183   -0.000000043
      5        6          -0.000000155   -0.000000109    0.000000117
      6        6          -0.000000005    0.000000074   -0.000000158
      7        1          -0.000000015    0.000000136   -0.000000215
      8        6           0.000000193    0.000000069    0.000000057
      9        8          -0.000000764   -0.000000179   -0.000000264
     10        6           0.000000181   -0.000000184   -0.000000022
     11        1           0.000000172   -0.000000006    0.000000026
     12        1           0.000000021    0.000000241    0.000000040
     13        1           0.000000172   -0.000000013   -0.000000182
     14        1          -0.000000162    0.000000085    0.000000160
     15        1          -0.000000108    0.000000122   -0.000000196
     16        1           0.000000028   -0.000000123    0.000000207
     17        1          -0.000000242   -0.000000068   -0.000000027
     18        1           0.000000194    0.000000006   -0.000000120
     19        1           0.000000082   -0.000000018    0.000000214
     20        1          -0.000000065   -0.000000224   -0.000000031
     21        8           0.000000139   -0.000000226    0.000000234
     22        8           0.000000338    0.000000135   -0.000000185
 -------------------------------------------------------------------
 Cartesian Forces:  Max     0.000000857 RMS     0.000000212
 Leave Link  716 at Wed Feb 17 08:21:14 2021, MaxMem=    33554432 cpu:         0.0
 (Enter /cm/shared/apps/Gaussian09/g09/l103.exe)

 GradGradGradGradGradGradGradGradGradGradGradGradGradGradGradGradGradGrad
 Berny optimization.
 Search for a saddle point.
 Step number   1 out of a maximum of  100
 All quantities printed in internal units (Hartrees-Bohrs-Radians)
 Swapping is turned off.
 Second derivative matrix not updated -- analytic derivatives used.
 ITU=  0
     Eigenvalues ---   -0.54077   0.00013   0.00040   0.00066   0.00170
     Eigenvalues ---    0.00226   0.00461   0.00829   0.01069   0.01243
     Eigenvalues ---    0.01458   0.02069   0.02614   0.03257   0.03613
     Eigenvalues ---    0.04075   0.04470   0.04650   0.04843   0.04909
     Eigenvalues ---    0.05366   0.05495   0.05869   0.05988   0.06813
     Eigenvalues ---    0.07501   0.07754   0.08696   0.08781   0.09725
     Eigenvalues ---    0.10885   0.11906   0.12256   0.13854   0.15555
     Eigenvalues ---    0.17337   0.19218   0.20132   0.21545   0.25652
     Eigenvalues ---    0.27448   0.31336   0.38299   0.45399   0.46803
     Eigenvalues ---    0.51152   0.54792   0.55503   0.55983   0.58627
     Eigenvalues ---    0.59932   0.60620   0.61327   0.62577   0.66342
     Eigenvalues ---    0.69045   0.71698   0.73043   1.65278   1.80800
 Eigenvectors required to have negative eigenvalues:
                          Y11       Z11       Z21       Y2        Z22
   1                    0.61910   0.43914  -0.41707  -0.33746   0.18977
                          X11       Y21       X2        Y1        Y22
   1                   -0.13694  -0.13261   0.12217   0.10058  -0.08991
 RFO step:  Lambda0=2.775557562D-16 Lambda= 0.00000000D+00.
 Linear search not attempted -- option 19 set.
 TrRot= -0.000002 -0.000001 -0.000004  0.000000 -0.000001  0.000000
 Variable       Old X    -DE/DX   Delta X   Delta X   Delta X     New X
                                 (Linear)    (Quad)   (Total)
    X1        2.18363   0.00000   0.00000  -0.00006  -0.00007   2.18357
    Y1        3.48338   0.00000   0.00000  -0.00005  -0.00005   3.48333
    Z1        5.61012   0.00000   0.00000   0.00002   0.00002   5.61014
    X2        1.85765   0.00000   0.00000   0.00001   0.00000   1.85765
    Y2        2.88594   0.00000   0.00000  -0.00001  -0.00001   2.88593
    Z2        3.47308   0.00000   0.00000  -0.00001  -0.00001   3.47307
    X3        0.65147   0.00000   0.00000   0.00000   0.00000   0.65147
    Y3        4.23744   0.00000   0.00000   0.00001   0.00000   4.23745
    Z3        1.30867   0.00000   0.00000   0.00000   0.00000   1.30867
    X4       -1.98803   0.00000   0.00000   0.00000   0.00000  -1.98803
    Y4        3.18057   0.00000   0.00000   0.00000   0.00000   3.18057
    Z4        0.73790   0.00000   0.00000   0.00000   0.00000   0.73790
    X5       -2.07166   0.00000   0.00000   0.00001   0.00001  -2.07166
    Y5        0.30913   0.00000   0.00000   0.00000   0.00000   0.30913
    Z5        0.37464   0.00000   0.00000   0.00001   0.00000   0.37464
    X6       -0.36340   0.00000   0.00000   0.00000   0.00000  -0.36340
    Y6       -0.66708   0.00000   0.00000   0.00000   0.00000  -0.66708
    Z6       -1.72910   0.00000   0.00000  -0.00001  -0.00001  -1.72911
    X7       -0.42229   0.00000   0.00000  -0.00002  -0.00002  -0.42231
    Y7        0.53486   0.00000   0.00000   0.00000   0.00000   0.53486
    Z7       -3.45873   0.00000   0.00000  -0.00001  -0.00001  -3.45874
    X8       -1.04578   0.00000   0.00000   0.00000   0.00000  -1.04578
    Y8       -3.41139   0.00000   0.00000   0.00000   0.00000  -3.41139
    Z8       -2.41419   0.00000   0.00000   0.00000   0.00000  -2.41420
    X9       -3.15618   0.00000   0.00000   0.00000   0.00000  -3.15618
    Y9       -3.88780   0.00000   0.00000   0.00000   0.00000  -3.88779
    Z9       -3.15395   0.00000   0.00000  -0.00002  -0.00002  -3.15398
   X10        0.99026   0.00000   0.00000  -0.00001  -0.00001   0.99025
   Y10       -5.33636   0.00000   0.00000   0.00000  -0.00001  -5.33636
   Z10       -2.13766   0.00000   0.00000   0.00004   0.00003  -2.13763
   X11        2.66724   0.00000   0.00000   0.00008   0.00007   2.66731
   Y11        0.65816   0.00000   0.00000   0.00003   0.00003   0.65819
   Z11        2.73014   0.00000   0.00000  -0.00004  -0.00005   2.73009
   X12        0.53594   0.00000   0.00000   0.00000   0.00000   0.53594
   Y12        6.29452   0.00000   0.00000   0.00000   0.00000   6.29452
   Z12        1.70986   0.00000   0.00000   0.00001   0.00001   1.70987
   X13        1.88085   0.00000   0.00000   0.00000   0.00000   1.88085
   Y13        4.03369   0.00000   0.00000   0.00002   0.00002   4.03371
   Z13       -0.39152   0.00000   0.00000   0.00000  -0.00001  -0.39153
   X14       -3.30001   0.00000   0.00000   0.00000   0.00000  -3.30001
   Y14        3.70312   0.00000   0.00000   0.00000   0.00000   3.70312
   Z14        2.29088   0.00000   0.00000   0.00000   0.00000   2.29087
   X15       -2.73351   0.00000   0.00000   0.00000   0.00000  -2.73351
   Y15        4.13596   0.00000   0.00000   0.00000   0.00000   4.13596
   Z15       -0.97408   0.00000   0.00000   0.00000   0.00000  -0.97409
   X16       -1.56186   0.00000   0.00000   0.00003   0.00002  -1.56184
   Y16       -0.66888   0.00000   0.00000   0.00000   0.00000  -0.66887
   Z16        2.16354   0.00000   0.00000   0.00000   0.00000   2.16354
   X17       -4.05486   0.00000   0.00000   0.00001   0.00001  -4.05485
   Y17       -0.27221   0.00000   0.00000   0.00000  -0.00001  -0.27221
   Z17       -0.03364   0.00000   0.00000   0.00002   0.00001  -0.03363
   X18        2.57469   0.00000   0.00000   0.00001   0.00001   2.57470
   Y18       -4.96734   0.00000   0.00000  -0.00002  -0.00002  -4.96735
   Z18       -3.43360   0.00000   0.00000   0.00005   0.00005  -3.43354
   X19        1.81918   0.00000   0.00000  -0.00003  -0.00003   1.81915
   Y19       -5.29371   0.00000   0.00000   0.00000   0.00000  -5.29370
   Z19       -0.22164   0.00000   0.00000   0.00005   0.00004  -0.22160
   X20        0.29482   0.00000   0.00000  -0.00001  -0.00001   0.29481
   Y20       -7.25797   0.00000   0.00000   0.00000  -0.00001  -7.25798
   Z20       -2.50499   0.00000   0.00000   0.00004   0.00003  -2.50496
   X21        2.89742   0.00000   0.00000   0.00003   0.00003   2.89745
   Y21       -1.26485   0.00000   0.00000   0.00002   0.00002  -1.26483
   Z21        1.15921   0.00000   0.00000  -0.00004  -0.00004   1.15917
   X22        2.34443   0.00000   0.00000   0.00000   0.00000   2.34443
   Y22       -0.42921   0.00000   0.00000   0.00001   0.00001  -0.42920
   Z22       -1.10494   0.00000   0.00000  -0.00003  -0.00004  -1.10498
         Item               Value     Threshold  Converged?
 Maximum Force            0.000001     0.000450     YES
 RMS     Force            0.000000     0.000300     YES
 Maximum Displacement     0.000075     0.001800     YES
 RMS     Displacement     0.000022     0.001200     YES
 Predicted change in Energy=-1.924397D-11
 Optimization completed.
    -- Stationary point found.
 Lowest energy point so far.  Saving SCF results.
 GradGradGradGradGradGradGradGradGradGradGradGradGradGradGradGradGradGrad

 Largest change from initial coordinates is atom    0       0.000 Angstoms.
 Leave Link  103 at Wed Feb 17 08:21:14 2021, MaxMem=    33554432 cpu:         0.0
 (Enter /cm/shared/apps/Gaussian09/g09/l202.exe)
                          Input orientation:                          
 ---------------------------------------------------------------------
 Center     Atomic      Atomic             Coordinates (Angstroms)
 Number     Number       Type             X           Y           Z
 ---------------------------------------------------------------------
      1          8           0        1.155529    1.843327    2.968748
      2          6           0        0.983026    1.527173    1.837875
      3          6           0        0.344743    2.242358    0.692521
      4          6           0       -1.052022    1.683085    0.390482
      5          6           0       -1.096277    0.163584    0.198252
      6          6           0       -0.192303   -0.353005   -0.914999
      7          1           0       -0.223465    0.283034   -1.830279
      8          6           0       -0.553404   -1.805227   -1.277536
      9          8           0       -1.670178   -2.057333   -1.668999
     10          6           0        0.524025   -2.823879   -1.131200
     11          1           0        1.411442    0.348282    1.444727
     12          1           0        0.283609    3.330916    0.904817
     13          1           0        0.995302    2.134538   -0.207183
     14          1           0       -1.746292    1.959608    1.212279
     15          1           0       -1.446512    2.188658   -0.515462
     16          1           0       -0.826500   -0.353954    1.144897
     17          1           0       -2.145737   -0.144046   -0.017801
     18          1           0        1.362469   -2.628601   -1.816980
     19          1           0        0.962670   -2.801309   -0.117287
     20          1           0        0.156010   -3.840752   -1.325584
     21          8           0        1.533248   -0.669327    0.613427
     22          8           0        1.240618   -0.227129   -0.584712
 ---------------------------------------------------------------------
                    Distance matrix (angstroms):
                    1          2          3          4          5
     1  O    0.000000
     2  C    1.186838   0.000000
     3  C    2.449043   1.493562   0.000000
     4  C    3.398002   2.502134   1.534590   0.000000
     5  C    3.945607   2.978462   2.577236   1.532252   0.000000
     6  C    4.660903   3.534796   3.099749   2.566917   1.524258
     7  H    5.231329   4.056951   3.244431   2.752895   2.211563
     8  C    5.853488   4.813657   4.590287   3.898619   2.519698
     9  O    6.686439   5.673300   5.303209   4.314430   2.957780
    10  C    6.244292   5.287508   5.387472   5.011205   3.649350
    11  H    2.150184   1.314492   2.300257   2.993624   2.806504
    12  H    2.689420   2.147852   1.110751   2.182612   3.526374
    13  H    3.193277   2.133378   1.115490   2.180034   2.902368
    14  H    3.394005   2.833292   2.173137   1.110777   2.162515
    15  H    4.362292   3.446507   2.161181   1.109937   2.175541
    16  H    3.476049   2.700600   2.883971   2.183926   1.112097
    17  H    4.875191   4.003206   3.521643   2.168252   1.114756
    18  H    6.553180   5.547288   5.573114   5.412328   4.231181
    19  H    5.579735   4.749613   5.145502   4.942328   3.623454
    20  H    7.193683   6.285384   6.411910   5.909061   4.463744
    21  O    3.464627   2.574224   3.145903   3.502452   2.789357
    22  O    4.113527   3.002142   2.921006   3.139446   2.495350
                    6          7          8          9         10
     6  C    0.000000
     7  H    1.115013   0.000000
     8  C    1.539733   2.185228   0.000000
     9  O    2.378522   2.756140   1.209953   0.000000
    10  C    2.581683   3.271141   1.489939   2.385655   0.000000
    11  H    2.938045   3.660989   3.988601   4.997865   4.181568
    12  H    4.136363   4.126434   5.642980   6.282916   6.487270
    13  H    2.845923   2.747345   4.366451   5.178173   5.065749
    14  H    3.505478   3.793028   4.668634   4.944024   5.790335
    15  H    2.862293   2.618395   4.162874   4.405577   5.421040
    16  H    2.155314   3.101786   2.837068   3.395777   3.620092
    17  H    2.159753   2.676304   2.623353   2.571630   3.943196
    18  H    2.899866   3.315567   2.153953   3.089530   1.100644
    19  H    2.822145   3.722154   2.153332   3.145346   1.104961
    20  H    3.529063   4.171850   2.156140   2.575555   1.098749
    21  O    2.326729   3.156696   3.036465   4.171087   2.950313
    22  O    1.475872   1.988780   2.487753   3.605283   2.748685
                   11         12         13         14         15
    11  H    0.000000
    12  H    3.234133   0.000000
    13  H    2.468337   1.781676   0.000000
    14  H    3.552701   2.468910   3.092217   0.000000
    15  H    3.923930   2.513019   2.461792   1.768452   0.000000
    16  H    2.364618   3.855937   3.367443   2.490608   3.099368
    17  H    3.877486   4.339160   3.885091   2.469416   2.485576
    18  H    4.416216   6.639877   5.041206   6.316049   5.726282
    19  H    3.544179   6.253799   4.936773   5.636715   5.555400
    20  H    5.176750   7.511578   6.136719   6.610876   6.291118
    21  O    1.319631   4.201006   2.970597   4.245622   4.280355
    22  O    2.116341   3.974198   2.404200   4.114927   3.614068
                   16         17         18         19         20
    16  H    0.000000
    17  H    1.770964   0.000000
    18  H    4.328778   4.660211   0.000000
    19  H    3.283867   4.090616   1.754601   0.000000
    20  H    4.384788   4.546864   1.779416   1.786372   0.000000
    21  O    2.439330   3.769522   3.126467   2.324832   3.964149
    22  O    2.698260   3.434486   2.701926   2.630997   3.844937
                   21         22
    21  O    0.000000
    22  O    1.310232   0.000000
 Symmetry turned off by external request.
 Stoichiometry    C7H11O4(2)
 Framework group  C1[X(C7H11O4)]
 Deg. of freedom    60
 Full point group                 C1      NOp   1
 Rotational constants (GHZ):      2.0851926      0.6771925      0.5724276
 Leave Link  202 at Wed Feb 17 08:21:14 2021, MaxMem=    33554432 cpu:         0.0
 (Enter /cm/shared/apps/Gaussian09/g09/l716.exe)
 Dipole        = 4.98396516D-02 7.80087792D-01-4.51531412D-01
 Polarizability= 6.72375549D+01 2.63865508D-01 1.07000098D+02
                 1.61170357D+01 5.39058645D+01 1.13242481D+02
 HyperPolar    = 6.13660793D+00 3.24139263D+01 7.37223061D+01
                -6.89475453D+02 1.24401315D+01 1.07800846D+02
                -5.28339584D+02 1.34586927D+02-2.48337767D+02
                 1.01779695D+02
 Full mass-weighted force constant matrix:
 Low frequencies ----2612.0646   -1.9523   -1.4828   -0.6657    0.0933    0.9622
 Low frequencies ---    1.7770   25.4208   43.8520
 ******    1 imaginary frequencies (negative Signs) ****** 
 Diagonal vibrational polarizability:
       96.6980342      81.5031965     419.3467051
 Harmonic frequencies (cm**-1), IR intensities (KM/Mole), Raman scattering
 activities (A**4/AMU), depolarization ratios for plane and unpolarized
 incident light, reduced masses (AMU), force constants (mDyne/A),
 and normal coordinates:
                      1                      2                      3
                      A                      A                      A
 Frequencies --  -2612.0646                25.4204                43.8519
 Red. masses --      1.1578                 4.3935                 7.2257
 Frc consts  --      4.6545                 0.0017                 0.0082
 IR Inten    --  17157.5566                10.8012                 1.1157
  Atom  AN      X      Y      Z        X      Y      Z        X      Y      Z
     1   8     0.00   0.01   0.01    -0.10  -0.02   0.03     0.24   0.30  -0.09
     2   6     0.02  -0.06  -0.03    -0.04  -0.02   0.02     0.01   0.10   0.00
     3   6     0.00   0.01   0.00     0.06   0.01  -0.02    -0.09  -0.03  -0.02
     4   6     0.00   0.00   0.00     0.06   0.07  -0.10    -0.08  -0.10   0.07
     5   6     0.00   0.00   0.00     0.00   0.07  -0.07    -0.02  -0.09   0.04
     6   6    -0.01   0.00   0.00     0.02  -0.01  -0.01     0.03  -0.03   0.06
     7   1     0.00   0.01   0.00     0.08  -0.04  -0.04     0.13   0.05   0.11
     8   6     0.00   0.00   0.00     0.01  -0.01   0.03     0.01   0.01  -0.11
     9   8     0.00   0.00   0.00    -0.08  -0.06   0.31     0.00   0.07  -0.13
    10   6     0.00   0.00   0.00     0.11   0.05  -0.30     0.01  -0.01  -0.27
    11   1    -0.17   0.81   0.55    -0.06  -0.03   0.05    -0.16  -0.01   0.15
    12   1    -0.01   0.00  -0.01     0.10   0.01  -0.03    -0.12  -0.01  -0.11
    13   1    -0.01   0.02   0.01     0.11  -0.03   0.02    -0.11  -0.06  -0.04
    14   1     0.00   0.00   0.00     0.02   0.12  -0.15    -0.03  -0.15   0.13
    15   1     0.00   0.00   0.00     0.14   0.06  -0.14    -0.17  -0.10   0.11
    16   1     0.00   0.00   0.00    -0.07   0.07  -0.04    -0.01  -0.10   0.04
    17   1     0.00   0.00   0.00    -0.01   0.10  -0.11     0.00  -0.13   0.02
    18   1     0.00  -0.01  -0.01    -0.04   0.17  -0.44    -0.03   0.04  -0.30
    19   1    -0.01  -0.01   0.00     0.30  -0.03  -0.38     0.06  -0.11  -0.29
    20   1     0.00   0.00   0.00     0.13   0.04  -0.32    -0.01   0.01  -0.34
    21   8    -0.01  -0.01  -0.06    -0.04  -0.03   0.05    -0.14  -0.08   0.24
    22   8     0.01  -0.02   0.04     0.02  -0.03   0.04     0.02  -0.14   0.18
                      4                      5                      6
                      A                      A                      A
 Frequencies --     87.5832               105.3960               142.1107
 Red. masses --      1.9619                 1.5520                 2.7573
 Frc consts  --      0.0089                 0.0102                 0.0328
 IR Inten    --      1.3111                 2.1925                 1.9721
  Atom  AN      X      Y      Z        X      Y      Z        X      Y      Z
     1   8     0.13   0.00  -0.01     0.11   0.01   0.01     0.10  -0.03   0.02
     2   6    -0.01  -0.05   0.03    -0.03  -0.04   0.05    -0.07   0.03   0.03
     3   6     0.01  -0.03   0.03    -0.02  -0.01   0.06    -0.16   0.13   0.14
     4   6     0.00   0.03  -0.02    -0.01   0.02  -0.04    -0.05   0.00  -0.10
     5   6    -0.07   0.04  -0.07    -0.05   0.02  -0.08     0.08  -0.01  -0.06
     6   6    -0.04   0.02  -0.03    -0.01   0.01  -0.04     0.09  -0.02  -0.05
     7   1    -0.02  -0.01  -0.05     0.01  -0.02  -0.06     0.11  -0.03  -0.06
     8   6     0.02  -0.01   0.01     0.02  -0.01   0.00     0.00  -0.01   0.00
     9   8     0.03  -0.08   0.02     0.03  -0.03   0.00    -0.04   0.05   0.07
    10   6     0.08   0.06   0.05     0.02  -0.01   0.03    -0.07  -0.08   0.00
    11   1    -0.17  -0.11   0.06    -0.18  -0.09   0.07    -0.10   0.05  -0.07
    12   1     0.04  -0.03   0.04    -0.03  -0.02   0.09    -0.35   0.08   0.35
    13   1     0.03  -0.04   0.04     0.02   0.02   0.08    -0.07   0.41   0.16
    14   1    -0.01   0.04  -0.03    -0.05   0.01  -0.07    -0.22  -0.03  -0.24
    15   1     0.04   0.08  -0.02     0.05   0.05  -0.05     0.08  -0.06  -0.19
    16   1    -0.15   0.01  -0.07    -0.12   0.00  -0.07     0.11   0.04  -0.04
    17   1    -0.08   0.10  -0.14    -0.05   0.06  -0.14     0.09  -0.09  -0.03
    18   1     0.31   0.37   0.42    -0.22  -0.32  -0.35     0.05  -0.02   0.16
    19   1    -0.29  -0.19   0.21     0.38   0.33  -0.13    -0.23  -0.23   0.07
    20   1     0.25   0.08  -0.38    -0.10  -0.06   0.53    -0.09  -0.04  -0.19
    21   8    -0.08  -0.04  -0.01    -0.04  -0.01  -0.01     0.04   0.02  -0.01
    22   8    -0.05   0.05   0.01    -0.02   0.05   0.01     0.09  -0.06  -0.04
                      7                      8                      9
                      A                      A                      A
 Frequencies --    191.1956               210.1434               225.1896
 Red. masses --      3.6509                 4.3280                 4.1536
 Frc consts  --      0.0786                 0.1126                 0.1241
 IR Inten    --      6.7997                 6.7619                 3.4306
  Atom  AN      X      Y      Z        X      Y      Z        X      Y      Z
     1   8     0.02  -0.02   0.07     0.01   0.19   0.11    -0.05   0.08   0.12
     2   6     0.05   0.09   0.03    -0.08  -0.01   0.18     0.11   0.13   0.08
     3   6     0.04   0.15   0.07     0.09  -0.13   0.02     0.06   0.04   0.06
     4   6     0.10   0.08  -0.09     0.08  -0.05  -0.08     0.08  -0.06   0.17
     5   6     0.05   0.04   0.14    -0.02  -0.06   0.00     0.06  -0.02  -0.16
     6   6    -0.13  -0.07   0.06    -0.02  -0.08   0.02     0.03   0.00  -0.20
     7   1    -0.18  -0.07   0.05    -0.08  -0.10  -0.01     0.05  -0.03  -0.20
     8   6    -0.05  -0.08  -0.01    -0.03  -0.07  -0.02    -0.01  -0.04  -0.07
     9   8     0.02  -0.17  -0.16    -0.05   0.00  -0.04    -0.04  -0.10   0.04
    10   6     0.05   0.01  -0.06    -0.10  -0.14  -0.08    -0.03  -0.06   0.01
    11   1     0.10   0.14  -0.09    -0.25  -0.13   0.20     0.22   0.21  -0.08
    12   1    -0.06   0.12   0.18     0.16  -0.09  -0.15     0.00   0.05  -0.01
    13   1     0.11   0.29   0.10     0.19  -0.33   0.12     0.02   0.02   0.04
    14   1    -0.04   0.23  -0.26     0.01   0.07  -0.19     0.20  -0.30   0.36
    15   1     0.27  -0.06  -0.24     0.22  -0.09  -0.17    -0.12   0.12   0.36
    16   1     0.21   0.17   0.16    -0.05  -0.04   0.02     0.03  -0.19  -0.24
    17   1     0.02   0.02   0.36    -0.03  -0.02   0.01     0.04   0.07  -0.22
    18   1    -0.02   0.08  -0.13    -0.02  -0.06   0.04     0.02  -0.11   0.07
    19   1     0.13   0.06  -0.10    -0.20  -0.32  -0.04    -0.10  -0.03   0.04
    20   1     0.13  -0.02  -0.03    -0.13  -0.09  -0.29    -0.05  -0.06   0.03
    21   8    -0.07   0.05   0.01     0.15   0.13  -0.07    -0.17   0.10   0.01
    22   8    -0.10  -0.08  -0.03    -0.04   0.16  -0.01     0.01  -0.05  -0.10
                     10                     11                     12
                      A                      A                      A
 Frequencies --    276.1999               314.1877               343.8291
 Red. masses --      2.7691                 5.0432                 3.1855
 Frc consts  --      0.1245                 0.2933                 0.2219
 IR Inten    --      1.6641                 5.4574                 8.6017
  Atom  AN      X      Y      Z        X      Y      Z        X      Y      Z
     1   8    -0.01   0.06   0.01    -0.01   0.12   0.05     0.04  -0.10   0.03
     2   6    -0.07  -0.04   0.05    -0.07  -0.01   0.10     0.17   0.05  -0.03
     3   6     0.02  -0.07  -0.01    -0.01  -0.05   0.04    -0.02  -0.10  -0.01
     4   6     0.04  -0.09  -0.08    -0.03   0.03   0.02     0.00  -0.12  -0.14
     5   6     0.15  -0.10   0.10    -0.05   0.04  -0.07    -0.09  -0.11  -0.06
     6   6     0.01   0.05  -0.09    -0.01  -0.02   0.01     0.00  -0.02  -0.01
     7   1    -0.06   0.11  -0.02     0.14   0.01   0.03     0.07   0.00   0.00
     8   6    -0.01   0.06  -0.05    -0.14   0.02  -0.03    -0.05   0.01  -0.04
     9   8    -0.04   0.04   0.05    -0.11  -0.06  -0.05    -0.07   0.04   0.01
    10   6     0.02   0.13   0.07     0.04   0.24   0.06     0.01   0.10   0.03
    11   1    -0.20  -0.12   0.07    -0.12  -0.06  -0.02     0.59   0.28  -0.05
    12   1     0.01  -0.06  -0.07     0.06  -0.03  -0.04    -0.14  -0.10  -0.02
    13   1     0.09  -0.11   0.04     0.01  -0.17   0.07    -0.01  -0.03  -0.02
    14   1    -0.04   0.00  -0.19    -0.02  -0.01   0.05    -0.10  -0.01  -0.27
    15   1     0.12  -0.22  -0.18    -0.03   0.10   0.06     0.16  -0.16  -0.24
    16   1     0.47  -0.02   0.06    -0.20  -0.01  -0.06    -0.14  -0.10  -0.05
    17   1     0.15  -0.28   0.38    -0.05   0.11  -0.21    -0.08  -0.08  -0.14
    18   1     0.03   0.09   0.07    -0.01   0.36   0.02     0.02   0.14   0.05
    19   1     0.00   0.27   0.08     0.09   0.47   0.04    -0.02   0.22   0.04
    20   1     0.09   0.08   0.19     0.29   0.13   0.21     0.12   0.05   0.10
    21   8    -0.14  -0.05  -0.03     0.24  -0.02  -0.03     0.01   0.15   0.11
    22   8     0.02   0.02  -0.05     0.07  -0.28  -0.08    -0.02   0.03   0.08
                     13                     14                     15
                      A                      A                      A
 Frequencies --    408.7154               412.3171               454.6611
 Red. masses --      3.5142                 4.3442                 3.0751
 Frc consts  --      0.3459                 0.4351                 0.3745
 IR Inten    --      1.0264                 6.1016                12.4667
  Atom  AN      X      Y      Z        X      Y      Z        X      Y      Z
     1   8    -0.12   0.13  -0.07    -0.07   0.15   0.04     0.01  -0.05  -0.01
     2   6     0.12  -0.06  -0.05     0.16  -0.02   0.05    -0.10   0.05  -0.02
     3   6     0.02   0.09   0.10    -0.03  -0.10   0.10     0.06   0.13  -0.04
     4   6     0.10  -0.07   0.02    -0.03  -0.01  -0.05     0.13  -0.09   0.03
     5   6     0.00  -0.05  -0.04    -0.13  -0.01   0.03    -0.03  -0.09  -0.01
     6   6     0.01  -0.03  -0.02    -0.05   0.03   0.06    -0.01  -0.12   0.04
     7   1     0.07  -0.02  -0.01    -0.19   0.01   0.05    -0.10  -0.18  -0.01
     8   6    -0.06  -0.01  -0.05     0.11   0.01   0.10    -0.01  -0.11   0.07
     9   8    -0.07  -0.06  -0.02     0.10   0.18   0.04    -0.04   0.20  -0.01
    10   6    -0.02   0.05   0.01     0.07  -0.06   0.00     0.11   0.01   0.03
    11   1     0.12  -0.18   0.00     0.51   0.08  -0.21    -0.49  -0.06   0.05
    12   1    -0.25   0.01   0.51    -0.09  -0.11   0.22    -0.08   0.12  -0.03
    13   1     0.02   0.57   0.07    -0.03   0.04   0.08     0.12   0.22   0.00
    14   1     0.06  -0.10   0.00    -0.15   0.14  -0.22     0.19  -0.13   0.11
    15   1     0.12  -0.05   0.01     0.21  -0.04  -0.18     0.02  -0.10   0.08
    16   1    -0.09  -0.13  -0.06    -0.26   0.00   0.05    -0.28  -0.20  -0.01
    17   1    -0.02   0.06  -0.10    -0.12   0.05  -0.11    -0.06   0.11  -0.21
    18   1    -0.01   0.07   0.03     0.04  -0.06  -0.04     0.05   0.21   0.00
    19   1    -0.05   0.14   0.02     0.14  -0.16  -0.03     0.18   0.09   0.00
    20   1     0.06   0.01   0.06     0.00  -0.02  -0.05     0.33  -0.06   0.03
    21   8     0.08  -0.19  -0.02    -0.08  -0.10  -0.11    -0.04   0.04  -0.02
    22   8    -0.03   0.15   0.10    -0.04  -0.11  -0.16    -0.04  -0.02  -0.03
                     16                     17                     18
                      A                      A                      A
[...]
 .00018512,0.00023118,0.00018472,0.00013332,0.00000148,0.00026010,0.000
 09971,0.00041391,-0.00024082,0.00038260,-0.01029728,0.25505326,0.00025
 273,-0.00068565,0.00000648,-0.00590218,0.02187876,-0.00068066,0.002907
 32,-0.03479620,-0.04113098,-0.00373243,-0.00758443,0.00084437,-0.00052
 356,-0.00023297,0.00001455,-0.00048144,-0.00000054,-0.00005786,0.00001
 354,-0.00000993,0.00001770,-0.00031084,-0.00017091,-0.00012808,0.00024
 025,0.00009721,0.00005611,0.00015380,0.00018498,0.00007625,-0.00197283
 ,0.00415372,0.00140881,0.00342246,0.03650401,0.04696155,-0.00228437,0.
 00073982,-0.00172077,0.00958985,-0.00343100,-0.00234402,-0.09002218,0.
 01145170,0.08095897,-0.03153933,-0.00464953,0.01755000,0.00009314,-0.0
 0004574,0.00013343,-0.00003228,-0.00061318,-0.00017928,-0.00003984,-0.
 00018146,-0.00022298,-0.00020185,-0.00026827,-0.00018108,0.00011147,0.
 00012842,0.00009782,-0.00008662,0.00022854,0.00011699,-0.00042766,0.00
 243791,0.00109433,0.00001264,0.00483092,0.00559908,0.11867933,0.002084
 97,-0.00155698,0.00056472,-0.00685489,0.00684547,0.01562961,0.01035832
 ,-0.03699682,-0.01370144,-0.00892945,0.00302656,0.00574421,0.00009327,
 -0.00017612,0.00019315,-0.00074039,-0.00086141,-0.00046298,-0.00017958
 ,-0.00018635,-0.00036724,-0.00015968,-0.00045209,-0.00017907,0.0002310
 5,0.00021257,0.00013628,-0.00009832,0.00023865,0.00003173,0.00136679,-
 0.00368544,-0.00131226,0.01188263,-0.00707067,-0.01735155,-0.00809953,
 0.03884008,-0.00148628,-0.00042101,-0.00122666,0.00397653,0.01313419,-
 0.03722642,0.08385325,-0.01482827,-0.14563578,0.00705363,0.00199640,0.
 00297204,-0.00031903,0.00010003,-0.00005389,0.00027595,0.00022603,-0.0
 0026449,-0.00026540,-0.00053360,0.00004178,0.00038046,0.00012317,0.000
 24965,-0.00023462,-0.00006446,-0.00014518,-0.00016486,-0.00019672,-0.0
 0024827,0.00076950,-0.00466114,-0.00310747,0.00687995,-0.00798704,-0.0
 0612097,-0.09962289,0.00991238,0.18781510,0.00005911,-0.00018117,0.000
 39433,-0.00163969,0.00061892,-0.00010851,-0.03424806,-0.00151022,0.016
 44039,-0.10023992,0.02672581,0.07996397,-0.00037996,0.00827501,0.00558
 413,0.00037642,-0.00020672,-0.00016872,0.00001682,-0.00001112,0.000085
 80,0.00040641,0.00050703,0.00017557,-0.00032749,-0.00017743,-0.0001150
 2,-0.00003212,-0.00024808,-0.00005723,0.00000057,-0.00047466,-0.000211
 60,-0.00032170,-0.00049191,0.00034799,-0.00272461,-0.00113861,-0.00046
 496,0.13341098,-0.00000143,-0.00011550,-0.00021709,0.00072441,-0.00003
 308,0.00081436,-0.00734524,0.00320531,0.00346903,0.02690143,-0.0434462
 8,-0.03088310,0.01572827,-0.02206745,-0.02305068,-0.00002220,-0.003217
 22,-0.00065837,-0.00008930,-0.00000756,0.00015200,0.00045336,0.0000070
 2,-0.00042485,-0.00014665,-0.00002987,0.00005895,-0.00001051,-0.000109
 98,0.00011640,0.00002762,0.00013502,0.00011326,-0.00089242,0.00014697,
 0.00030022,-0.00095725,-0.00004302,-0.00028051,-0.03139073,0.06264133,
 0.00025620,-0.00029596,-0.00094558,-0.00070397,0.00026632,0.00220048,0
 .00348921,0.00156954,0.00269930,0.08356192,-0.03252703,-0.13251455,0.0
 0516039,-0.01217847,-0.00527657,0.00019107,-0.00018020,0.00013473,0.00
 001636,-0.00004647,0.00000182,0.00008241,-0.00029593,-0.00002541,-0.00
 002232,0.00012046,0.00001355,-0.00008220,0.00010847,-0.00004184,0.0000
 9780,-0.00065343,-0.00041281,0.00008848,0.00034837,0.00048027,-0.00035
 623,-0.00033137,-0.00005279,-0.10145498,0.04438480,0.15659970,0.000285
 27,0.00046689,-0.00012233,-0.00247924,-0.00211172,-0.00062126,-0.02490
 988,0.00429084,-0.02614073,-0.05375785,0.02795759,-0.04872942,0.002206
 40,0.00495377,-0.00232715,-0.00021442,0.00034459,0.00000248,-0.0000265
 4,0.00033333,0.00028853,0.00037362,0.00033488,0.00015736,-0.00030018,-
 0.00009902,-0.00012015,-0.00000869,-0.00015726,-0.00003779,0.00005337,
 0.00069068,0.00034580,-0.00033616,-0.00038392,-0.00048296,-0.00082903,
 0.00020174,-0.00039275,0.00491871,-0.00336071,0.00998517,0.07416315,0.
 00005301,0.00005257,-0.00048670,-0.00078445,-0.00055080,0.00049657,-0.
 00287815,0.00449053,-0.00388375,0.02850087,-0.06871084,0.06460912,0.00
 869138,-0.03074941,0.02116221,0.00038478,-0.00019953,0.00016443,0.0002
 9810,-0.00028347,-0.00044590,-0.00027117,-0.00035563,0.00006560,0.0001
 3831,0.00018484,0.00005889,-0.00002133,0.00022986,0.00001165,0.0000325
 9,0.00027785,0.00010322,-0.00060136,0.00027265,-0.00046334,0.00025220,
 0.00046202,-0.00012981,-0.00071509,0.00426700,-0.00016955,-0.03271987,
 0.09466071,0.00012323,-0.00024631,-0.00003522,-0.00087905,0.00100878,-
 0.00001633,-0.01445844,0.00039759,-0.00880232,-0.05205080,0.06641448,-
 0.15376385,-0.00090631,0.00798715,0.00147287,-0.00005234,-0.00012162,0
 .00015258,0.00015637,-0.00038314,0.00004454,0.00027552,0.00007499,0.00
 021031,-0.00017855,0.00000664,-0.00017783,-0.00005076,-0.00009642,-0.0
 0010873,0.00023280,-0.00091535,-0.00058803,-0.00050604,-0.00048784,-0.
 00008445,0.00000894,0.00001640,0.00072658,-0.00019462,0.00714840,-0.02
 374888,0.06827650,-0.08120719,0.18390030,-0.00015657,0.00036090,0.0004
 8644,-0.00040231,-0.00215493,-0.00120994,-0.00032602,0.00005476,0.0001
 8922,0.00346532,0.00207125,0.00021042,-0.04298762,0.02011071,-0.037669
 09,0.00352583,-0.00264751,0.01778190,-0.00131707,0.00067014,0.00122008
 ,0.00098618,-0.00048064,0.00040513,-0.00065186,-0.00011049,0.00005597,
 -0.00033555,-0.00009672,-0.00036042,-0.00111014,-0.00008900,-0.0003202
 3,-0.00000959,-0.00003247,-0.00004540,-0.00004942,-0.00015126,0.000089
 86,0.00008494,0.00058819,0.00000705,0.00039828,-0.00018101,-0.00017389
 ,0.04963764,0.00004601,-0.00017692,0.00022564,-0.00156295,-0.00035005,
 -0.00108497,0.00034750,-0.00009198,0.00052261,0.00692669,-0.03041195,0
 .02119855,0.01939756,-0.07018803,0.06771993,-0.00167517,0.00559130,-0.
 00312753,0.00091916,-0.00024567,-0.00043363,0.00062513,0.00084584,-0.0
 0125636,-0.00026326,-0.00041516,0.00010034,-0.00023960,-0.00034563,0.0
 0054035,-0.00033339,-0.00017735,-0.00032903,0.00013803,-0.00003146,0.0
 0006383,-0.00006746,-0.00012022,0.00004744,0.00049417,-0.00062009,0.00
 019797,0.00014012,-0.00318983,-0.00031675,-0.02473194,0.09575368,-0.00
 001991,-0.00027649,-0.00102932,-0.00022331,0.00060907,0.00166056,-0.00
 004855,-0.00025078,-0.00027765,-0.00080705,0.00896944,0.00074394,-0.03
 650158,0.06988581,-0.16081642,0.00774492,0.00387358,-0.03583697,0.0012
 7906,-0.00068808,-0.00164891,0.00026143,-0.00157007,-0.00126146,0.0000
 5882,0.00036495,0.00017565,-0.00027330,0.00048083,-0.00019517,0.000307
 39,-0.00123281,-0.00059692,-0.00004909,0.00004025,0.00003136,0.0000772
 8,0.00006350,-0.00003091,-0.00013297,-0.00023508,0.00064053,-0.0000530
 1,-0.00027374,-0.00000136,0.03912814,-0.08371743,0.20535286,0.00003454
 ,0.00015030,0.00050781,-0.00014913,-0.00026702,-0.00080295,0.00065291,
 0.00036372,0.00018481,-0.00640109,-0.01399096,-0.00370894,-0.18806333,
 -0.04516495,-0.03210325,-0.03100196,0.00122042,0.00918620,-0.00012637,
 -0.00018715,0.00058498,0.00080945,0.00325447,0.00189436,-0.00180071,0.
 00000292,0.00009745,-0.00025393,-0.00058076,-0.00018472,-0.00009014,0.
 00019368,0.00013436,0.00002829,-0.00013917,0.00000599,-0.00010608,-0.0
 0006374,0.00007587,0.00062786,-0.00005061,-0.00021850,0.00044141,-0.00
 023350,0.00032732,-0.01088699,0.00054743,-0.00996822,0.23766676,-0.000
 00187,0.00005177,0.00018836,0.00011408,-0.00017217,-0.00017420,-0.0002
 3773,-0.00310481,-0.00044297,-0.02571793,-0.02245249,-0.00825536,-0.04
 255455,-0.04500834,-0.00921405,0.00477177,0.00407236,0.00065856,-0.000
 10517,0.00002752,0.00010285,0.00428545,-0.00065570,-0.00127503,-0.0016
 8147,-0.00034253,0.00039060,-0.00059493,-0.00011763,-0.00010952,-0.000
 08115,0.00005057,0.00002624,-0.00048597,-0.00017382,-0.00011366,0.0000
 9545,-0.00000451,-0.00004471,-0.00031007,-0.00066335,-0.00063671,-0.00
 054705,-0.00069151,0.00023194,0.00661358,0.00433509,0.00312454,0.05462
 955,0.06509554,0.00002464,0.00005146,-0.00006244,-0.00005069,-0.000200
 44,0.00016345,-0.00003223,-0.00020781,0.00001959,-0.00372076,-0.004866
 89,0.00170922,-0.03472660,-0.00959965,-0.03947478,0.02119586,0.0005256
 9,0.00033281,0.00048157,-0.00014430,-0.00029485,0.00320512,-0.00146969
 ,0.00025880,-0.00131881,0.00060443,-0.00019136,-0.00039720,0.00028964,
 -0.00038462,-0.00011813,0.00008233,0.00007215,-0.00004432,-0.00001495,
 0.00002255,-0.00000486,-0.00000215,0.00004658,-0.00024205,-0.00072231,
 -0.00004672,0.00023604,0.00047142,0.00039996,-0.01970424,-0.00066808,-
 0.00758964,0.03239985,0.01654019,0.04704598,-0.00004897,0.00003752,-0.
 00005569,0.00016138,-0.00021780,0.00008663,-0.00013268,-0.00004925,-0.
 00004202,0.00014856,-0.00002528,-0.00011198,-0.00035061,-0.00044328,-0
 .00004498,0.00101693,0.00015072,-0.00077092,-0.00008805,0.00014658,-0.
 00010870,-0.03289009,0.01144687,0.01503993,0.00069741,0.00073451,-0.00
 154205,-0.13718599,-0.02632301,0.08904597,-0.00002454,0.00027604,0.000
 19294,0.00000782,0.00002610,-0.00001534,0.00005758,0.00003945,-0.00000
 780,-0.00002080,-0.00002007,0.00002107,-0.00001598,0.00002864,-0.00000
 797,0.00004519,0.00001600,0.00007993,-0.00004915,0.00008568,0.00007939
 ,0.17221486,-0.00004598,0.00057316,0.00078120,0.00060073,-0.00200937,-
 0.00112872,-0.00014079,0.00034516,0.00003529,-0.00003063,0.00006196,0.
 00000757,-0.00017654,0.00017270,0.00013595,0.00023264,-0.00177171,0.00
 120600,0.00010522,-0.00040624,-0.00020684,0.01701837,0.00446814,-0.011
 39885,0.00161573,-0.00187270,0.00201534,-0.02471345,-0.04006539,0.0197
 4645,-0.00050361,0.00217103,0.00138482,-0.00002384,-0.00003978,-0.0000
 6293,-0.00001472,-0.00000681,0.00005828,0.00003497,-0.00000036,-0.0000
 0087,0.00001252,-0.00002556,0.00001575,0.00002349,0.00006725,-0.000000
 58,0.00005775,0.00005374,0.00002429,0.02361040,0.04260446,-0.00004492,
 0.00046620,0.00056483,0.00046838,-0.00157532,-0.00082269,-0.00006919,0
 .00035654,-0.00002875,-0.00001848,0.00007834,-0.00004293,-0.00004035,0
 .00006580,-0.00005302,-0.00033730,0.00001333,-0.00061146,-0.00006515,0
 .00009058,0.00027818,0.00844685,-0.00325522,0.00417417,-0.00190602,0.0
 0023558,-0.00170951,0.08993654,0.02032971,-0.10328626,-0.00037921,0.00
 155624,0.00092410,-0.00003076,-0.00004516,-0.00003829,-0.00005279,-0.0
 0001080,0.00011103,0.00003187,-0.00001125,0.00000144,0.00001069,-0.000
 02654,0.00004365,0.00004640,-0.00004786,-0.00000636,0.00006223,-0.0000
 2443,0.00001494,-0.11073027,-0.02443756,0.12014401,-0.00008889,0.00031
 921,0.00027331,0.00045853,-0.00114595,-0.00039042,-0.00018533,0.000138
 77,-0.00005026,0.00008186,0.00001037,-0.00003959,-0.00022003,-0.000143
 59,0.00006805,0.00024325,-0.00020534,0.00082027,-0.00018989,-0.0002572
 9,-0.00023302,-0.01731290,0.01328474,-0.02380811,-0.00156498,0.0004792
 4,0.00163485,-0.05762097,-0.00254477,-0.06568945,-0.00019330,0.0011964
 3,0.00069817,-0.00001379,0.00000633,-0.00004598,0.00002842,0.00004412,
 0.00005186,-0.00000316,-0.00000163,0.00001970,-0.00001514,0.00000397,-
 0.00000109,0.00004405,0.00016452,0.00007469,-0.00003158,0.00011382,0.0
 0000708,0.00543490,-0.00035776,0.01281226,0.07318439,-0.00008120,0.000
 94458,0.00126498,0.00096961,-0.00323403,-0.00182822,-0.00021282,0.0006
 3357,0.00002888,0.00004114,0.00011686,-0.00009952,-0.00038430,-0.00028
 692,-0.00004835,0.00079154,-0.00130045,-0.00127950,0.00001019,0.000142
 20,0.00009296,0.01178038,0.00055470,0.01932271,0.00268831,-0.00157908,
 -0.00126681,-0.00050813,-0.03559142,-0.00212591,-0.00070686,0.00334380
 ,0.00189826,-0.00005399,-0.00006681,-0.00010046,-0.00006096,-0.0000056
 7,0.00014911,0.00005654,-0.00002594,0.00000006,0.00001713,-0.00003026,
 0.00003856,0.00015644,-0.00002237,-0.00000518,0.00010015,0.00008501,0.
 00006789,0.00014918,0.00426156,0.00440671,-0.00565936,0.03898843,-0.00
 004577,0.00006524,-0.00015417,0.00007120,-0.00001975,0.00026543,-0.000
 05962,0.00008743,-0.00010564,0.00009493,-0.00000183,-0.00017756,-0.000
 30597,-0.00011193,-0.00025899,0.00055981,-0.00000898,-0.00008701,-0.00
 022522,-0.00002559,-0.00009172,-0.01711459,0.01067262,-0.00712663,0.00
 243800,-0.00035876,0.00014274,-0.06611464,-0.00448802,-0.18604224,0.00
 014206,-0.00038731,-0.00031920,-0.00001453,-0.00000751,-0.00000257,-0.
 00001260,0.00002109,0.00006446,-0.00000416,-0.00003954,0.00002861,-0.0
 0000375,0.00002133,0.00002866,0.00015570,-0.00022672,0.00016508,0.0000
 0997,0.00000310,0.00013422,0.00140758,0.00137256,-0.02294498,0.0849656
 1,-0.00092383,0.22307712,-0.00001548,0.00012529,0.00018542,0.00011680,
 -0.00040605,-0.00026840,-0.00004094,0.00009543,0.00003048,-0.00006533,
 0.00005716,0.00008785,0.00001352,0.00017195,0.00005267,-0.00179140,0.0
 0202818,-0.00022068,0.00010594,0.00016296,0.00012175,0.00733352,0.0218
 8772,0.00275224,-0.00105907,-0.00140738,-0.00013713,-0.05811437,-0.059
 63108,-0.01175915,-0.00009599,0.00040228,0.00024654,-0.00000189,-0.000
 01528,-0.00001468,-0.00000357,-0.00001655,0.00000402,0.00002230,0.0000
 1895,-0.00000697,0.00001748,-0.00001889,0.00000503,0.00003554,0.000071
 29,-0.00003339,0.00008578,0.00007470,-0.00002631,-0.00848710,-0.017226
 13,0.00156856,-0.00160785,-0.00892172,-0.00616581,0.06384676,-0.000013
 90,0.00036864,0.00054694,0.00032076,-0.00120884,-0.00078847,-0.0000389
 8,0.00026919,0.00005446,-0.00002876,0.00004597,-0.00000760,0.00000962,
 -0.00004907,0.00001636,0.00041523,-0.00108575,-0.00025373,-0.00000645,
 -0.00010808,0.00002351,0.01058525,-0.03698256,-0.00173871,-0.00286292,
 0.00032796,-0.00076705,-0.05696891,-0.19044350,-0.02937285,-0.00028687
 ,0.00122737,0.00075155,-0.00001774,-0.00004162,-0.00003854,-0.00002988
 ,-0.00002161,0.00004239,0.00003312,-0.00000968,-0.00001629,0.00001284,
 -0.00002724,0.00000966,0.00000586,-0.00001393,-0.00003928,0.00002729,-
 0.00005188,-0.00004880,-0.00969903,-0.00761157,0.00226719,-0.00522316,
 -0.00338236,-0.00681383,0.06320425,0.23895386,-0.00000100,0.00005304,0
 .00002955,0.00001850,-0.00011757,-0.00003632,0.00001753,0.00007568,-0.
 00002151,-0.00003536,0.00002735,-0.00001323,0.00004467,0.00025198,-0.0
 0003587,-0.00070822,0.00018744,0.00059560,-0.00002634,-0.00005883,0.00
 009171,0.00226600,0.00081173,0.00583010,-0.00051941,-0.00034515,-0.001
 17696,-0.01167194,-0.03012468,-0.04221036,-0.00003338,0.00001684,0.000
 02274,-0.00000445,-0.00001817,0.00000186,-0.00001919,-0.00001132,0.000
 02820,0.00000966,-0.00000468,0.00000196,0.00000868,-0.00000725,0.00002
 469,0.00000453,-0.00009428,0.00000857,0.00003309,-0.00005918,0.0000241
 1,0.00737162,0.01122921,0.00389853,-0.01078935,-0.01823184,-0.00681637
 ,0.01388554,0.03648958,0.03979255,-0.00041007,0.00331867,0.00476580,0.
 00364860,-0.01113218,-0.00584902,-0.00027876,0.00283445,-0.00043820,-0
 .00005544,0.00062004,-0.00060037,-0.00241107,0.00148564,-0.00089086,-0
 .02519577,0.02398754,-0.05548715,-0.00863290,-0.00081189,-0.00231545,-
 0.00044209,0.00057045,0.00030300,0.00129967,0.00047431,0.00043760,0.00
 156942,-0.00043118,-0.00110659,-0.00987183,0.02989507,0.01632531,-0.00
 028465,-0.00013702,-0.00039787,-0.00072838,0.00064312,0.00088266,0.000
 14081,-0.00008715,0.00003903,-0.00001772,-0.00002988,0.00015651,-0.000
 09710,-0.00045353,0.00088377,0.00064281,-0.00014072,-0.00047808,-0.000
 42667,-0.00047699,-0.00004685,-0.00076938,-0.00080821,0.00019990,-0.00
 007305,-0.00009540,0.00010403,0.08780856,-0.00047189,0.00815370,0.0117
 2233,0.02481179,-0.07663208,-0.03492699,-0.00059041,0.00170340,-0.0003
 9325,0.00060167,0.00024501,-0.00058485,0.00099879,0.00059873,0.0015394
 0,0.01824957,0.00012355,0.00561077,0.00113267,0.00167410,-0.00015819,-
 0.00261053,-0.00497405,-0.00248872,0.00147365,0.00131218,0.00073355,-0
 .00142227,0.00082480,-0.00222301,-0.00991037,0.00624510,0.01126029,-0.
 00039381,0.00014026,-0.00050771,-0.00036268,0.00050974,0.00100791,0.00
 003171,-0.00001985,0.00016085,-0.00016465,0.00000051,0.00015831,-0.000
 09371,-0.00016127,0.00021910,-0.00009776,-0.00004890,-0.00004820,0.000
 23964,-0.00023295,-0.00009244,0.00037562,-0.00131501,0.00145678,-0.000
 13186,-0.00013758,0.00008685,-0.04715818,0.13063872,-0.00290232,0.0365
 4047,0.04917845,0.06404312,-0.19806099,-0.09352340,-0.00686998,0.01777
 153,-0.00256485,0.00256130,0.00375479,-0.00279677,0.00412579,-0.002760
 35,-0.00095172,-0.08104298,-0.00263376,-0.04633559,-0.00416999,0.00074
 251,0.00058170,-0.01355808,0.00303359,-0.00515631,0.00886847,0.0015525
 7,0.00288078,0.00597443,0.00548744,0.00235069,-0.05382695,0.20814848,0
 .12591687,-0.00209618,-0.00051866,-0.00354157,-0.00304334,0.00396594,0
 .00597067,0.00062220,-0.00021912,0.00057201,-0.00063796,-0.00047076,0.
 00102983,-0.00035217,0.00108302,0.00103515,0.00030248,-0.00009841,-0.0
 0037476,-0.00086575,-0.00268616,-0.00181270,-0.00195759,-0.00475991,-0
 .00007529,-0.00039216,-0.00125083,-0.00008637,0.06315659,-0.09437504,0
 .06804084,0.00088213,-0.00854636,-0.01077747,-0.01148067,0.03676465,0.
 01720871,0.00202291,-0.00363030,0.00113254,-0.00124690,-0.00101256,0.0
 0043547,-0.04660636,0.00674963,0.00707091,-0.18104645,-0.03475712,0.01
 788992,-0.00839935,0.00833473,-0.01800969,-0.02679928,-0.01952874,-0.0
 1067528,-0.00178090,-0.00430383,-0.00189103,0.00039462,-0.00155076,-0.
 00018378,0.01019312,-0.05048467,-0.03324577,0.00049115,0.00015962,0.00
 098358,0.00050400,-0.00051246,-0.00133407,-0.00012666,-0.00006616,-0.0
 0017130,0.00005270,0.00007023,-0.00010239,0.00010742,-0.00050676,-0.00
 178668,-0.00203038,0.00167554,0.00323441,-0.00006411,0.00039837,0.0003
 3617,0.00034253,0.00063722,0.00002103,-0.00022194,0.00065766,0.0000450
 0,-0.04541719,0.01549738,0.02207488,0.31022955,-0.00099771,0.00880178,
 0.01101489,0.01543391,-0.04389153,-0.02156921,-0.00064453,0.00289733,-
 0.00293151,0.00146962,0.00064311,-0.00080673,0.00843190,0.00225592,-0.
 00233894,-0.04316101,-0.04081918,0.00524741,0.01236798,0.00057890,0.00
 865376,-0.02809536,-0.00481964,-0.00959574,-0.00052735,-0.00419959,-0.
 00123846,0.00099855,-0.00248748,0.00021280,-0.01381840,0.06668689,0.02
 953361,-0.00084592,0.00006260,-0.00106627,-0.00138311,0.00105449,0.002
 35044,0.00007908,0.00000604,0.00017543,-0.00021091,-0.00008312,0.00026
 705,0.00011426,-0.00002993,0.00065843,0.00022812,-0.00028329,-0.000664
 17,-0.00020999,-0.00073657,-0.00034016,-0.00059820,-0.00223081,-0.0002
 8538,-0.00052579,-0.00001862,-0.00015631,-0.00207181,-0.06866813,0.025
 75257,0.05396723,0.08530191,0.00233158,-0.02168201,-0.02717399,-0.0288
 0995,0.08697642,0.03841649,0.00407376,-0.01045388,0.00289399,-0.000898
 75,-0.00244861,0.00176162,0.01392074,0.00233144,0.00774474,0.02814019,
 0.01364506,-0.03908120,-0.02636189,0.00602250,-0.01816850,-0.00088751,
 -0.01284798,0.00231670,-0.00567734,-0.00108039,-0.00155226,-0.00499176
 ,-0.00466669,-0.00214066,0.02424989,-0.11845835,-0.10577771,0.00093618
 ,0.00060039,0.00186481,0.00212331,-0.00254884,-0.00391171,-0.00050113,
 0.00018972,-0.00030975,0.00035948,0.00039997,-0.00070687,0.00005408,-0
 .00039691,-0.00052194,0.00117872,-0.00081803,-0.00182359,0.00097869,0.
 00190925,0.00120225,0.00157832,0.00340081,0.00029697,0.00008401,0.0009
 3486,0.00004683,-0.01963179,0.10184573,-0.10032821,0.00774172,-0.04285
 660,0.24496033\\0.00000008,-0.00000011,-0.00000086,-0.00000041,0.00000
 011,0.00000038,0.00000013,-0.00000010,0.00000009,0.00000021,-0.0000001
 8,0.00000004,0.00000016,0.00000011,-0.00000012,0.,-0.00000007,0.000000
 16,0.00000002,-0.00000014,0.00000021,-0.00000019,-0.00000007,-0.000000
 06,0.00000076,0.00000018,0.00000026,-0.00000018,0.00000018,0.00000002,
 -0.00000017,0.,-0.00000003,-0.00000002,-0.00000024,-0.00000004,-0.0000
 0017,0.00000001,0.00000018,0.00000016,-0.00000009,-0.00000016,0.000000
 11,-0.00000012,0.00000020,-0.00000003,0.00000012,-0.00000021,0.0000002
 4,0.00000007,0.00000003,-0.00000019,0.,0.00000012,-0.00000008,0.000000
 02,-0.00000021,0.00000006,0.00000022,0.00000003,-0.00000014,0.00000023
 ,-0.00000023,-0.00000034,-0.00000013,0.00000018\\\@


 IMAGINATION WILL OFTEN CARRY US TO WORLDS THAT NEVER WERE.
 BUT WITHOUT IT, WE GO NOWHERE. -- CARL SAGAN (COSMOS)
 Job cpu time:       0 days  0 hours  0 minutes  1.5 seconds.
 File lengths (MBytes):  RWF=     58 Int=      0 D2E=      0 Chk=      2 Scr=      1
 Normal termination of Gaussian 09 at Wed Feb 17 08:21:14 2021.
