22
Properties=species:S:1:pos:R:3:momenta:R:3:forces:R:3 pbc="F F F"
O        1.15552888       1.84332667       2.96874813       0.06753974      -0.20029297       1.14752207       0.10503431      -0.05185920      -0.04177995
C        0.98302551       1.52717323       1.83787455      -0.92917520      -0.32947097       0.04317877      -0.10207091       0.00226813       0.41621362
C        0.34474339       2.24235758       0.69252084       0.02254791      -1.00020666       0.59027222       0.35356470      -1.20371567       1.10046742
C       -1.05202229       1.68308537       0.39048185       0.66437248      -1.35481740       0.33534972       0.02813311      -0.11711569       0.02178770
C       -1.09627729       0.16358363       0.19825242       0.23247385       0.18063368      -0.82994213       0.05898524      -0.09449646       0.03407729
C       -0.19230273      -0.35300486      -0.91499934       1.58259654       1.67709829      -1.79405609       0.00782810      -0.04982653      -0.02289512
H       -0.22346512       0.28303392      -1.83027938      -0.55440837       0.08362364       0.05559291      -0.01399591      -0.02089164       0.10574095
C       -0.55340366      -1.80522737      -1.27753599       1.48123520       1.17603705       0.73391842       0.03848826       0.01888226      -0.06609059
O       -1.67017811      -2.05733281      -1.66899932      -1.36940117      -0.08644738       0.64547550      -0.03954293      -0.05847798      -0.04064766
C        0.52402496      -2.82387928      -1.13120005       1.13086596      -0.13573860       2.12345485      -0.03066712      -0.03518082       0.00035901
H        1.41144187       0.34828210       1.44472652      -0.22177186      -0.38101402      -0.09237577      -0.67710381      -0.48897939      -0.79547368
H        0.28360871       3.33091622       0.90481670      -0.12842219       0.12907381      -0.77341377      -0.00637053       0.09370813      -0.10169505
H        0.99530169       2.13453801      -0.20718298       0.25142962      -0.27906944      -0.20240523       0.01450375      -0.04059444       0.03795327
H       -1.74629208       1.95960811       1.21227888       0.12305798       0.26275818      -0.13224883       0.01364221       0.07173614      -0.00426715
H       -1.44651194       2.18865787      -0.51546230      -0.57139985       0.47334207      -0.03153494      -0.01157367      -0.07249368      -0.08416800
H       -0.82650011      -0.35395404       1.14489682       0.14892152       0.61813870      -0.35338969       0.00213106      -0.00549000       0.01684901
H       -2.14573712      -0.14404581      -0.01780111      -0.22840372       0.04184443       0.37498097       0.07136761      -0.00869976      -0.04050910
H        1.36246874      -2.62860129      -1.81698048      -0.06627695      -0.41294739       0.31295729      -0.07956290      -0.07262680       0.06966873
H        0.96267038      -2.80130890      -0.11728684       0.14100718       0.29859414       0.39236315      -0.05632760       0.06358177      -0.02218369
H        0.15601036      -3.84075225      -1.32558387       0.20251265       0.18707839      -0.12918547       0.02092402       0.00422531       0.03426658
O        1.53324751      -0.66932732       0.61342663       1.42995445      -1.05090510      -0.09200739       0.28509727       2.12172146      -0.43823879
O        1.24061846      -0.22712879      -0.58471170      -0.79651718       1.35640680      -0.74470994       0.01751572      -0.05567514      -0.17943480
