4
Properties=species:S:1:pos:R:3 energy=-1082.0463202875787 pbc="F F F"
C        1.12768700       0.17492300       0.02915000
H        0.61766900       0.43959600       0.94589800
H        0.61769600       0.26948200      -0.92036100
H        2.14776800      -0.18420100       0.06185100
