 Entering Gaussian System, Link 0=g09
 Initial command:
 /apps/applications/gaussian/G09.D01/2/default/g09/l1.exe "/nobackup/chmrsh/Scratch/Gau-28895.inp" -scrdir="/nobackup/chmrsh/Scratch/"
 Entering Link 1 = /apps/applications/gaussian/G09.D01/2/default/g09/l1.exe PID=     28896.
  
 Copyright (c) 1988,1990,1992,1993,1995,1998,2003,2009,2013,
            Gaussian, Inc.  All Rights Reserved.
  
 This is part of the Gaussian(R) 09 program.  It is based on
 the Gaussian(R) 03 system (copyright 2003, Gaussian, Inc.),
 the Gaussian(R) 98 system (copyright 1998, Gaussian, Inc.),
 the Gaussian(R) 94 system (copyright 1995, Gaussian, Inc.),
 the Gaussian 92(TM) system (copyright 1992, Gaussian, Inc.),
 the Gaussian 90(TM) system (copyright 1990, Gaussian, Inc.),
 the Gaussian 88(TM) system (copyright 1988, Gaussian, Inc.),
 the Gaussian 86(TM) system (copyright 1986, Carnegie Mellon
 University), and the Gaussian 82(TM) system (copyright 1983,
 Carnegie Mellon University). Gaussian is a federally registered
 trademark of Gaussian, Inc.
  
 This software contains proprietary and confidential information,
 including trade secrets, belonging to Gaussian, Inc.
  
 This software is provided under written license and may be
 used, copied, transmitted, or stored only in accord with that
 written license.
  
 The following legend is applicable only to US Government
 contracts under FAR:
  
                    RESTRICTED RIGHTS LEGEND
  
 Use, reproduction and disclosure by the US Government is
 subject to restrictions as set forth in subparagraphs (a)
 and (c) of the Commercial Computer Software - Restricted
 Rights clause in FAR 52.227-19.
  
 Gaussian, Inc.
 340 Quinnipiac St., Bldg. 40, Wallingford CT 06492
  
  
 ---------------------------------------------------------------
 Warning -- This program may not be used in any manner that
 competes with the business of Gaussian, Inc. or will provide
 assistance to any competitor of Gaussian, Inc.  The licensee
 of this program is prohibited from giving any competitor of
 Gaussian, Inc. access to this program.  By using this program,
 the user acknowledges that Gaussian, Inc. is engaged in the
 business of creating and licensing software in the field of
 computational chemistry and represents and warrants to the
 licensee that it is not a competitor of Gaussian, Inc. and that
 it will not use this program in any manner prohibited above.
 ---------------------------------------------------------------
  

 Cite this work as:
 Gaussian 09, Revision D.01,
 M. J. Frisch, G. W. Trucks, H. B. Schlegel, G. E. Scuseria, 
 M. A. Robb, J. R. Cheeseman, G. Scalmani, V. Barone, B. Mennucci, 
 G. A. Petersson, H. Nakatsuji, M. Caricato, X. Li, H. P. Hratchian, 
 A. F. Izmaylov, J. Bloino, G. Zheng, J. L. Sonnenberg, M. Hada, 
 M. Ehara, K. Toyota, R. Fukuda, J. Hasegawa, M. Ishida, T. Nakajima, 
 Y. Honda, O. Kitao, H. Nakai, T. Vreven, J. A. Montgomery, Jr., 
 J. E. Peralta, F. Ogliaro, M. Bearpark, J. J. Heyd, E. Brothers, 
 K. N. Kudin, V. N. Staroverov, T. Keith, R. Kobayashi, J. Normand, 
 K. Raghavachari, A. Rendell, J. C. Burant, S. S. Iyengar, J. Tomasi, 
 M. Cossi, N. Rega, J. M. Millam, M. Klene, J. E. Knox, J. B. Cross, 
 V. Bakken, C. Adamo, J. Jaramillo, R. Gomperts, R. E. Stratmann, 
 O. Yazyev, A. J. Austin, R. Cammi, C. Pomelli, J. W. Ochterski, 
 R. L. Martin, K. Morokuma, V. G. Zakrzewski, G. A. Voth, 
 P. Salvador, J. J. Dannenberg, S. Dapprich, A. D. Daniels, 
 O. Farkas, J. B. Foresman, J. V. Ortiz, J. Cioslowski, 
 and D. J. Fox, Gaussian, Inc., Wallingford CT, 2013.
 
 ******************************************
 Gaussian 09:  ES64L-G09RevD.01 24-Apr-2013
                 7-Jan-2021 
 ******************************************
 ----------------------------------------------------------------------
 #P b3lyp/3-21G scf=qc opt(calcall, ts, noeigentest, cartesian,maxcycle
 =100) NoSymm
 ----------------------------------------------------------------------
 1/5=1,6=100,10=4,11=1,14=-1,18=10,26=3,38=1/1,3;
 2/12=2,15=1,17=6,18=5,29=2,40=1/2;
 3/5=5,11=2,16=1,25=1,30=1,71=2,74=-5,140=1/1,2,3;
 4//1;
 5/5=2,8=3,38=5/8;
 8/6=4,10=90,11=11/1;
 11/6=1,8=1,9=11,15=111,16=1,31=1/1,2,10;
 10/6=1,31=1/2;
 6/7=2,8=2,9=2,10=2,18=1,28=1/1;
 7/7=1,10=1,25=1,30=1/1,2,3,16;
 1/5=1,6=100,10=4,11=1,14=-1,18=10,26=3/3(3);
 2/15=1,29=1/2;
 7/7=1,8=1,9=1,25=1,30=1,44=-1/16;
 99/12=1/99;
 2/15=1,29=1/2;
 3/5=5,11=2,16=1,25=1,30=1,71=2,74=-5,140=1/1,2,3;
 4/5=5,16=3,69=1/1;
 5/5=2,8=3,38=5/8;
 8/6=4,10=90,11=11/1;
 11/6=1,8=1,9=11,15=111,16=1,31=1/1,2,10;
 10/6=1,31=1/2;
 7/7=1,10=1,25=1,30=1/1,2,3,16;
 1/5=1,6=100,10=4,11=1,14=-1,18=10,26=3/3(-8);
 2/15=1,29=1/2;
 6/7=2,8=2,9=2,10=2,18=1,19=2,28=1/1;
 7/7=1,8=1,9=1,25=1,30=1,44=-1/16;
 99/12=1/99;
 Leave Link    1 at Thu Jan  7 23:57:17 2021, MaxMem=           0 cpu:         0.0
 (Enter /apps/applications/gaussian/G09.D01/2/default/g09/l101.exe)
 ------------------------------
 Gaussian input prepared by ASE
 ------------------------------
 Symbolic Z-matrix:
 Charge =  0 Multiplicity = 2
 C                    -3.2534    3.2763    1.51329 
 C                    -3.82314   5.38065   0.56415 
 H                    -3.82369   2.76425   0.78331 
 H                    -3.68165   3.4508    2.47144 
 H                    -2.22009   3.47553   1.38272 
 C                    -4.78613   5.66141   1.23895 
 H                    -5.59624   5.88014   1.83679 
 O                    -2.7909    5.32584  -0.23622 
 H                    -2.43664   4.33699  -0.51538 
 
 NAtoms=      9 NQM=        9 NQMF=       0 NMMI=      0 NMMIF=      0
                NMic=       0 NMicF=      0.
                    Isotopes and Nuclear Properties:
 (Nuclear quadrupole moments (NQMom) in fm**2, nuclear magnetic moments (NMagM)
  in nuclear magnetons)

  Atom         1           2           3           4           5           6           7           8           9
 IAtWgt=          12          12           1           1           1          12           1          16           1
 AtmWgt=  12.0000000  12.0000000   1.0078250   1.0078250   1.0078250  12.0000000   1.0078250  15.9949146   1.0078250
 NucSpn=           0           0           1           1           1           0           1           0           1
 AtZEff=   0.0000000   0.0000000   0.0000000   0.0000000   0.0000000   0.0000000   0.0000000   0.0000000   0.0000000
 NQMom=    0.0000000   0.0000000   0.0000000   0.0000000   0.0000000   0.0000000   0.0000000   0.0000000   0.0000000
 NMagM=    0.0000000   0.0000000   2.7928460   2.7928460   2.7928460   0.0000000   2.7928460   0.0000000   2.7928460
 AtZNuc=   6.0000000   6.0000000   1.0000000   1.0000000   1.0000000   6.0000000   1.0000000   8.0000000   1.0000000
 Leave Link  101 at Thu Jan  7 23:57:17 2021, MaxMem=    33554432 cpu:         0.1
 (Enter /apps/applications/gaussian/G09.D01/2/default/g09/l103.exe)

 GradGradGradGradGradGradGradGradGradGradGradGradGradGradGradGradGradGrad
 Berny optimization.
 Initialization pass.
 No Z-matrix variables, so optimization will use Cartesian coordinates.
 Trust Radius=3.00D-01 FncErr=1.00D-07 GrdErr=1.00D-06
 Number of steps in this run=    100 maximum allowed number of steps=    100.
 Search for a saddle point of order  1.
 GradGradGradGradGradGradGradGradGradGradGradGradGradGradGradGradGradGrad

 Leave Link  103 at Thu Jan  7 23:57:17 2021, MaxMem=    33554432 cpu:         0.0
 (Enter /apps/applications/gaussian/G09.D01/2/default/g09/l202.exe)
 ---------------------------------------------------------------------------------------------------
                            Z-MATRIX (ANGSTROMS AND DEGREES)
   CD    Cent   Atom    N1       Length/X        N2       Alpha/Y        N3        Beta/Z          J
 ---------------------------------------------------------------------------------------------------
      1      1  C        0  -3.253402          3.276299          1.513293
      2      2  C        0  -3.823142          5.380650          0.564152
      3      3  H        0  -3.823695          2.764248          0.783307
      4      4  H        0  -3.681647          3.450800          2.471439
      5      5  H        0  -2.220087          3.475531          1.382722
      6      6  C        0  -4.786131          5.661412          1.238948
      7      7  H        0  -5.596243          5.880140          1.836795
      8      8  O        0  -2.790896          5.325843         -0.236225
      9      9  H        0  -2.436639          4.336988         -0.515385
 ---------------------------------------------------------------------------------------------------
                         Z-Matrix orientation:                         
 ---------------------------------------------------------------------
 Center     Atomic      Atomic             Coordinates (Angstroms)
 Number     Number       Type             X           Y           Z
 ---------------------------------------------------------------------
      1          6           0       -3.253402    3.276299    1.513293
      2          6           0       -3.823142    5.380650    0.564152
      3          1           0       -3.823695    2.764248    0.783307
      4          1           0       -3.681647    3.450800    2.471439
      5          1           0       -2.220087    3.475531    1.382722
      6          6           0       -4.786131    5.661412    1.238948
      7          1           0       -5.596243    5.880140    1.836795
      8          8           0       -2.790896    5.325843   -0.236225
      9          1           0       -2.436639    4.336988   -0.515385
 ---------------------------------------------------------------------
                    Distance matrix (angstroms):
                    1          2          3          4          5
     1  C    0.000000
     2  C    2.377765   0.000000
     3  H    1.058447   2.625564   0.000000
     4  H    1.063902   2.717000   1.827929   0.000000
     5  H    1.060416   2.620939   1.853855   1.822656   0.000000
     6  C    2.848384   1.208936   3.086657   2.761472   3.373920
     7  H    3.517605   2.238972   3.736382   3.157554   4.169743
     8  O    2.734110   1.307340   2.944128   3.411842   2.523978
     9  H    2.430576   2.043776   2.466584   3.355069   2.095665
                    6          7          8          9
     6  C    0.000000
     7  H    1.030312   0.000000
     8  O    2.503938   3.531944   0.000000
     9  H    3.217437   4.230504   1.086859   0.000000
 Symmetry turned off by external request.
 Stoichiometry    C3H5O(2)
 Framework group  C1[X(C3H5O)]
 Deg. of freedom    21
 Full point group                 C1      NOp   1
 Rotational constants (GHZ):      9.1208569      7.2752985      4.1740157
 Leave Link  202 at Thu Jan  7 23:57:17 2021, MaxMem=    33554432 cpu:         0.0
 (Enter /apps/applications/gaussian/G09.D01/2/default/g09/l301.exe)
 Standard basis: 3-21G (6D, 7F)
 Ernie: Thresh=  0.10000D-02 Tol=  0.10000D-05 Strict=F.
    46 basis functions,    75 primitive gaussians,    46 cartesian basis functions
    16 alpha electrons       15 beta electrons
       nuclear repulsion energy       105.7586114366 Hartrees.
 IExCor=  402 DFT=T Ex+Corr=B3LYP ExCW=0 ScaHFX=  0.200000
 ScaDFX=  0.800000  0.720000  1.000000  0.810000 ScalE2=  1.000000  1.000000
 IRadAn=      0 IRanWt=     -1 IRanGd=            0 ICorTp=0 IEmpDi=  4
 NAtoms=    9 NActive=    9 NUniq=    9 SFac= 1.00D+00 NAtFMM=   60 NAOKFM=F Big=F
 Integral buffers will be    131072 words long.
 Raffenetti 2 integral format.
 Two-electron integral symmetry is turned off.
 Leave Link  301 at Thu Jan  7 23:57:17 2021, MaxMem=    33554432 cpu:         0.0
 (Enter /apps/applications/gaussian/G09.D01/2/default/g09/l302.exe)
 NPDir=0 NMtPBC=     1 NCelOv=     1 NCel=       1 NClECP=     1 NCelD=      1
         NCelK=      1 NCelE2=     1 NClLst=     1 CellRange=     0.0.
 One-electron integrals computed using PRISM.
 NBasis=    46 RedAO= T EigKep=  2.29D-03  NBF=    46
 NBsUse=    46 1.00D-06 EigRej= -1.00D+00 NBFU=    46
 Precomputing XC quadrature grid using
 IXCGrd= 4 IRadAn=           0 IRanWt=          -1 IRanGd=           0 AccXCQ= 0.00D+00.
 Generated NRdTot=       0 NPtTot=           0 NUsed=           0 NTot=          32
 NSgBfM=    46    46    46    46    46 MxSgAt=     9 MxSgA2=     9.
 Leave Link  302 at Thu Jan  7 23:57:17 2021, MaxMem=    33554432 cpu:         0.1
 (Enter /apps/applications/gaussian/G09.D01/2/default/g09/l303.exe)
 DipDrv:  MaxL=1.
 Leave Link  303 at Thu Jan  7 23:57:17 2021, MaxMem=    33554432 cpu:         0.0
 (Enter /apps/applications/gaussian/G09.D01/2/default/g09/l401.exe)
 ExpMin= 1.83D-01 ExpMax= 3.22D+02 ExpMxC= 3.22D+02 IAcc=1 IRadAn=         1 AccDes= 0.00D+00
 Harris functional with IExCor=  402 and IRadAn=       1 diagonalized for initial guess.
 HarFok:  IExCor=  402 AccDes= 0.00D+00 IRadAn=         1 IDoV= 1 UseB2=F ITyADJ=14
 ICtDFT=  3500011 ScaDFX=  1.000000  1.000000  1.000000  1.000000
 FoFCou: FMM=F IPFlag=           0 FMFlag=      100000 FMFlg1=           0
         NFxFlg=           0 DoJE=T BraDBF=F KetDBF=T FulRan=T
         wScrn=  0.000000 ICntrl=     500 IOpCl=  0 I1Cent=   200000004 NGrid=           0
         NMat0=    1 NMatS0=      1 NMatT0=    0 NMatD0=    1 NMtDS0=    0 NMtDT0=    0
 Symmetry not used in FoFCou.
 Harris En= -191.333565529721    
 JPrj=0 DoOrth=F DoCkMO=F.
 Initial guess <Sx>= 0.0000 <Sy>= 0.0000 <Sz>= 0.5000 <S**2>= 0.7500 S= 0.5000
 Leave Link  401 at Thu Jan  7 23:57:17 2021, MaxMem=    33554432 cpu:         0.2
 (Enter /apps/applications/gaussian/G09.D01/2/default/g09/l508.exe)
 Direct SCF.
 Tight linear equation convergence will be used.
 UB3LYP wavefunction.
 Quadratic Convergence SCF Method.
 Line search only if initial step raises energy.
 Two-electron integral symmetry not used.
 ReadGW:  IGet=1 IStart=         402 Next=         402 LGW=           0.
 Keep R1 and R2 ints in memory in canonical form, NReq=2054730.
 FoFCou: FMM=F IPFlag=           0 FMFlag=           0 FMFlg1=           0
         NFxFlg=           0 DoJE=F BraDBF=F KetDBF=F FulRan=T
         wScrn=  0.000000 ICntrl=     600 IOpCl=  0 I1Cent=           0 NGrid=           0
         NMat0=    1 NMatS0=   1081 NMatT0=    0 NMatD0=    1 NMtDS0=    0 NMtDT0=    0
 Symmetry not used in FoFCou.
 Iteration   1 EE= -191.176082468399                                    Grad=4.857D-01 Max rot=    4.4665 deg.
 Gradient too large for Newton-Raphson -- use scaled steepest descent instead.
 Alpha Gap=     0.170 HL deriv= 1.41D-01
  Beta Gap=     0.214 HL deriv= 1.34D-02
     ILin= 1 X=0.000D+00 Y=-1.911760824684D+02 DE= 0.00D+00 F= -5.68D-01
     ILin= 2 X=3.000D-01 Y=-1.912794862178D+02 DE=-1.03D-01 F= -1.21D-01
     ILin= 3 X=4.000D-01 Y=-1.912841985321D+02 DE=-1.08D-01 F=  2.65D-02
     Accept linear search using points  2 and  3.
     An  expanding polynomial of degree  3 produced  0.3361
 Iteration   2 EE= -191.282888531077     Delta-E=       -0.106806062678 Grad=1.761D-01 Max rot=    1.4289 deg.
 Gradient too large for Newton-Raphson -- use scaled steepest descent instead.
 Alpha Gap=     0.221 HL deriv= 1.38D-02
  Beta Gap=     0.204 HL deriv= 2.58D-02
     ILin= 1 X=0.000D+00 Y=-1.912828885311D+02 DE= 0.00D+00 F= -6.45D-02
     ILin= 2 X=3.000D-01 Y=-1.912956553873D+02 DE=-1.28D-02 F= -2.06D-02
     ILin= 3 X=5.000D-01 Y=-1.912968615604D+02 DE=-1.40D-02 F=  8.53D-03
     Accept linear search using points  2 and  3.
     An  expanding polynomial of degree  3 produced  0.3913
 Iteration   3 EE= -191.296928917837     Delta-E=       -0.014040386761 Grad=7.417D-02 Max rot=    0.7216 deg.
 Gradient too large for Newton-Raphson -- use scaled steepest descent instead.
 Alpha Gap=     0.235 HL deriv= 2.32D-02
  Beta Gap=     0.203 HL deriv= 1.05D-03
     ILin= 1 X=0.000D+00 Y=-1.912969289178D+02 DE= 0.00D+00 F= -9.87D-03
     ILin= 2 X=4.000D-01 Y=-1.912992312970D+02 DE=-2.30D-03 F= -1.64D-03
     ILin= 3 X=7.000D-01 Y=-1.912988015127D+02 DE=-1.87D-03 F=  4.51D-03
     An  expanding polynomial of degree  3 produced  0.4802
 Iteration   4 EE= -191.299297177563     Delta-E=       -0.002368259725 Grad=3.826D-02 Max rot=    0.4093 deg.
 Gradient too large for Newton-Raphson -- use scaled steepest descent instead.
 Alpha Gap=     0.236 HL deriv= 4.43D-03
  Beta Gap=     0.202 HL deriv= 1.07D-02
     ILin= 1 X=0.000D+00 Y=-1.912992971776D+02 DE= 0.00D+00 F= -3.01D-03
     ILin= 2 X=4.000D-01 Y=-1.912999049147D+02 DE=-6.08D-04 F= -3.19D-05
     ILin= 3 X=9.000D-01 Y=-1.912989918946D+02 DE= 3.05D-04 F=  3.68D-03
     An  expanding polynomial of degree  3 produced  0.4044
     Minimum is close to point  2 DX=  4.37D-03 DF= -7.11D-08 DXR=  1.08D-02 DFR=  1.17D-04 which will be used.
 Iteration   5 EE= -191.299904914693     Delta-E=       -0.000607737131 Grad=2.179D-02 Max rot=    0.2414 deg.
 Gradient too large for Newton-Raphson -- use scaled steepest descent instead.
 Alpha Gap=     0.238 HL deriv= 6.82D-03
  Beta Gap=     0.203 HL deriv= 2.71D-03
     ILin= 1 X=0.000D+00 Y=-1.912999049147D+02 DE= 0.00D+00 F= -8.16D-04
     ILin= 2 X=4.000D-01 Y=-1.913001063490D+02 DE=-2.01D-04 F= -1.91D-04
     ILin= 3 X=9.000D-01 Y=-1.913000058704D+02 DE=-1.01D-04 F=  5.93D-04
     An  expanding polynomial of degree  3 produced  0.5216
 Iteration   6 EE= -191.300117955190     Delta-E=       -0.000213040496 Grad=1.248D-02 Max rot=    0.1553 deg.
 Gradient too large for Newton-Raphson -- use scaled steepest descent instead.
 Alpha Gap=     0.238 HL deriv= 1.59D-03
  Beta Gap=     0.203 HL deriv= 4.70D-03
     ILin= 1 X=0.000D+00 Y=-1.913001179552D+02 DE= 0.00D+00 F= -3.89D-04
     ILin= 2 X=5.000D-01 Y=-1.913001936221D+02 DE=-7.57D-05 F=  8.67D-05
     Accept linear search using points  1 and  2.
     An  expanding polynomial of degree  2 produced  0.2979
 Iteration   7 EE= -191.300191699938     Delta-E=       -0.000073744749 Grad=7.171D-03 Max rot=    0.0911 deg.
 QCNR:  CnvC1=3.07D-09 CnvC2=3.07D-08
 LinEq1:  Iter=  0 NonCon=     1 RMS=3.46D-04 Max=6.26D-03 NDo=     1
 AX will form     1 AO Fock derivatives at one time.
 LinEq1:  Iter=  1 NonCon=     1 RMS=1.01D-04 Max=1.37D-03 NDo=     1
 LinEq1:  Iter=  2 NonCon=     1 RMS=1.17D-04 Max=1.31D-03 NDo=     1
 LinEq1:  Iter=  3 NonCon=     1 RMS=4.58D-05 Max=5.29D-04 NDo=     1
 LinEq1:  Iter=  4 NonCon=     1 RMS=3.08D-05 Max=2.87D-04 NDo=     1
 LinEq1:  Iter=  5 NonCon=     1 RMS=8.96D-06 Max=5.76D-05 NDo=     1
 LinEq1:  Iter=  6 NonCon=     1 RMS=5.60D-06 Max=5.20D-05 NDo=     1
 LinEq1:  Iter=  7 NonCon=     1 RMS=2.74D-06 Max=2.15D-05 NDo=     1
 LinEq1:  Iter=  8 NonCon=     1 RMS=1.87D-06 Max=1.86D-05 NDo=     1
 LinEq1:  Iter=  9 NonCon=     1 RMS=3.76D-07 Max=2.90D-06 NDo=     1
 LinEq1:  Iter= 10 NonCon=     1 RMS=1.08D-07 Max=6.83D-07 NDo=     1
 LinEq1:  Iter= 11 NonCon=     1 RMS=2.33D-08 Max=1.46D-07 NDo=     1
 LinEq1:  Iter= 12 NonCon=     1 RMS=4.69D-09 Max=4.32D-08 NDo=     1
 LinEq1:  Iter= 13 NonCon=     0 RMS=7.82D-10 Max=7.23D-09 NDo=     1
 Linear equations converged to 3.074D-09 3.074D-08 after    13 iterations.
 Angle between quadratic step and gradient=  51.92 degrees.
     ILin= 1 X=0.000D+00 Y=-1.913001916999D+02 DE= 0.00D+00 F= -1.31D-04
     ILin= 2 X=1.000D+00 Y=-1.913002571906D+02 DE=-6.55D-05 F=  2.28D-07
     Accept linear search using points  1 and  2.
     An  expanding polynomial of degree  2 produced  0.9983
     Minimum is close to point  2 DX= -1.73D-03 DF= -1.97D-10 DXR=  1.73D-03 DFR=  3.00D-06 which will be used.
 Iteration   8 EE= -191.300257190640     Delta-E=       -0.000065490702 Grad=3.560D-05 Max rot=    0.0006 deg.
 QCNR:  CnvC1=3.56D-10 CnvC2=3.56D-09
 LinEq1:  Iter=  0 NonCon=     1 RMS=2.22D-06 Max=3.46D-05 NDo=     1
 LinEq1:  Iter=  1 NonCon=     1 RMS=2.13D-06 Max=3.05D-05 NDo=     1
 LinEq1:  Iter=  2 NonCon=     1 RMS=1.99D-06 Max=2.44D-05 NDo=     1
 LinEq1:  Iter=  3 NonCon=     1 RMS=5.05D-07 Max=5.38D-06 NDo=     1
 LinEq1:  Iter=  4 NonCon=     1 RMS=2.79D-07 Max=2.92D-06 NDo=     1
 LinEq1:  Iter=  5 NonCon=     1 RMS=1.36D-07 Max=1.03D-06 NDo=     1
 LinEq1:  Iter=  6 NonCon=     1 RMS=9.87D-08 Max=1.01D-06 NDo=     1
 LinEq1:  Iter=  7 NonCon=     1 RMS=4.97D-08 Max=4.57D-07 NDo=     1
 LinEq1:  Iter=  8 NonCon=     1 RMS=1.36D-08 Max=1.03D-07 NDo=     1
 LinEq1:  Iter=  9 NonCon=     1 RMS=3.31D-09 Max=2.47D-08 NDo=     1
 LinEq1:  Iter= 10 NonCon=     1 RMS=7.33D-10 Max=5.11D-09 NDo=     1
 LinEq1:  Iter= 11 NonCon=     0 RMS=1.31D-10 Max=9.78D-10 NDo=     1
 Linear equations converged to 3.560D-10 3.560D-09 after    11 iterations.
 Angle between quadratic step and gradient=  49.44 degrees.
     ILin= 1 X=0.000D+00 Y=-1.913002571906D+02 DE= 0.00D+00 F= -2.60D-09
     ILin= 2 X=1.000D+00 Y=-1.913002571919D+02 DE=-1.30D-09
 Iteration   9 EE= -191.300257191939     Delta-E=       -0.000000001299 Grad=1.191D-09 Max rot=    0.0000 deg.
 Rotation gradient small -- convergence achieved.
 SCF Done:  E(UB3LYP) =  -191.300257192     a.u. after    9 cycles
            Convg  =    0.1191D-08                    43 Fock formations.
              S**2 =  0.7564                  -V/T =  2.0084
 <Sx>= 0.0000 <Sy>= 0.0000 <Sz>= 0.5000 <S**2>= 0.7564 S= 0.5032
 <L.S>= 0.000000000000E+00
 Annihilation of the first spin contaminant:
 S**2 before annihilation     0.7564,   after     0.7500
 Leave Link  508 at Thu Jan  7 23:57:47 2021, MaxMem=    33554432 cpu:        29.5
 (Enter /apps/applications/gaussian/G09.D01/2/default/g09/l801.exe)
 DoSCS=F DFT=T ScalE2(SS,OS)=  1.000000  1.000000
 Range of M.O.s used for correlation:     1    46
 NBasis=    46 NAE=    16 NBE=    15 NFC=     0 NFV=     0
 NROrb=     46 NOA=    16 NOB=    15 NVA=    30 NVB=    31
 Leave Link  801 at Thu Jan  7 23:57:47 2021, MaxMem=    33554432 cpu:         0.0
 (Enter /apps/applications/gaussian/G09.D01/2/default/g09/l1101.exe)
 Using compressed storage, NAtomX=     9.
 Will process     10 centers per pass.
 Leave Link 1101 at Thu Jan  7 23:57:47 2021, MaxMem=    33554432 cpu:         0.0
 (Enter /apps/applications/gaussian/G09.D01/2/default/g09/l1102.exe)
 Symmetrizing basis deriv contribution to polar:
 IMax=3 JMax=2 DiffMx= 0.00D+00
 Leave Link 1102 at Thu Jan  7 23:57:47 2021, MaxMem=    33554432 cpu:         0.0
 (Enter /apps/applications/gaussian/G09.D01/2/default/g09/l1110.exe)
 Forming Gx(P) for the SCF density, NAtomX=     9.
 Integral derivatives from FoFJK, PRISM(SPDF).
 Do as many integral derivatives as possible in FoFJK.
 G2DrvN: MDV=      33554256.
 G2DrvN: will do    10 centers at a time, making    1 passes.
 Calling FoFCou, ICntrl=  3107 FMM=F I1Cent=   0 AccDes= 0.00D+00.
 FoFJK:  IHMeth= 1 ICntrl=    3107 DoSepK=F KAlg= 0 I1Cent=   0 FoldK=F
 IRaf=         0 NMat=   1 IRICut=       1 DoRegI=T DoRafI=F ISym2E= 0.
 FoFCou: FMM=F IPFlag=           0 FMFlag=      100000 FMFlg1=           0
         NFxFlg=           0 DoJE=F BraDBF=F KetDBF=F FulRan=T
         wScrn=  0.000000 ICntrl=    3107 IOpCl=  1 I1Cent=           0 NGrid=           0
         NMat0=    1 NMatS0=      1 NMatT0=    0 NMatD0=    1 NMtDS0=    0 NMtDT0=    0
 Symmetry not used in FoFCou.
 End of G2Drv F.D. properties file   721 does not exist.
 End of G2Drv F.D. properties file   722 does not exist.
 End of G2Drv F.D. properties file   788 does not exist.
 Leave Link 1110 at Thu Jan  7 23:57:57 2021, MaxMem=    33554432 cpu:        10.1
 (Enter /apps/applications/gaussian/G09.D01/2/default/g09/l1002.exe)
 Minotr:  UHF open shell wavefunction.
          IDoAtm=111111111
          Direct CPHF calculation.
          Differentiating once with respect to electric field.
                with respect to dipole field.
          Differentiating once with respect to nuclear coordinates.
          Requested convergence is 1.0D-08 RMS, and 1.0D-07 maximum.
          Secondary convergence is 1.0D-12 RMS, and 1.0D-12 maximum.
          NewPWx=T KeepS1=F KeepF1=F KeepIn=T MapXYZ=F SortEE=F KeepMc=T.
          MDV=      33554246 using IRadAn=       2.
 Generate precomputed XC quadrature information.
 Keep R1 and R2 ints in memory in canonical form, NReq=2035813.
 FoFCou: FMM=F IPFlag=           0 FMFlag=           0 FMFlg1=           0
         NFxFlg=           0 DoJE=F BraDBF=F KetDBF=F FulRan=T
         wScrn=  0.000000 ICntrl=     600 IOpCl=  0 I1Cent=           0 NGrid=           0
         NMat0=    1 NMatS0=   1081 NMatT0=    0 NMatD0=    1 NMtDS0=    0 NMtDT0=    0
 Symmetry not used in FoFCou.
          Solving linear equations simultaneously, MaxMat=       0.
          There are    30 degrees of freedom in the 1st order CPHF.  IDoFFX=6 NUNeed=     3.
     27 vectors produced by pass  0 Test12= 3.15D-15 3.33D-09 XBig12= 8.55D+01 3.14D+00.
 AX will form    27 AO Fock derivatives at one time.
     27 vectors produced by pass  1 Test12= 3.15D-15 3.33D-09 XBig12= 2.50D+01 8.45D-01.
     27 vectors produced by pass  2 Test12= 3.15D-15 3.33D-09 XBig12= 4.23D-01 1.98D-01.
     27 vectors produced by pass  3 Test12= 3.15D-15 3.33D-09 XBig12= 5.47D-04 4.26D-03.
     27 vectors produced by pass  4 Test12= 3.15D-15 3.33D-09 XBig12= 1.46D-06 2.18D-04.
     26 vectors produced by pass  5 Test12= 3.15D-15 3.33D-09 XBig12= 3.65D-09 1.01D-05.
      8 vectors produced by pass  6 Test12= 3.15D-15 3.33D-09 XBig12= 8.51D-12 4.51D-07.
      2 vectors produced by pass  7 Test12= 3.15D-15 3.33D-09 XBig12= 1.57D-14 1.98D-08.
 InvSVY:  IOpt=1 It=  1 EMax= 8.88D-15
 Solved reduced A of dimension   171 with    30 vectors.
 FullF1:  Do perturbations    1 to     3.
 Isotropic polarizability for W=    0.000000       31.01 Bohr**3.
 End of Minotr F.D. properties file   721 does not exist.
 End of Minotr F.D. properties file   722 does not exist.
 End of Minotr F.D. properties file   788 does not exist.
 Leave Link 1002 at Thu Jan  7 23:58:07 2021, MaxMem=    33554432 cpu:         9.5
 (Enter /apps/applications/gaussian/G09.D01/2/default/g09/l601.exe)
 Copying SCF densities to generalized density rwf, IOpCl= 1 IROHF=0.

 **********************************************************************

            Population analysis using the SCF density.

 **********************************************************************

 Alpha  occ. eigenvalues --  -19.10405 -10.18144 -10.11717 -10.10653  -1.07999
 Alpha  occ. eigenvalues --   -0.74893  -0.69241  -0.60068  -0.51782  -0.43876
 Alpha  occ. eigenvalues --   -0.43649  -0.41517  -0.40106  -0.27740  -0.24081
 Alpha  occ. eigenvalues --   -0.19144
 Alpha virt. eigenvalues --    0.01387   0.09276   0.10164   0.15080   0.16465
 Alpha virt. eigenvalues --    0.19940   0.20577   0.26133   0.55069   0.66368
 Alpha virt. eigenvalues --    0.67505   0.72924   0.74015   0.77322   0.79036
 Alpha virt. eigenvalues --    0.84412   0.88420   0.92077   0.97596   1.05955
 Alpha virt. eigenvalues --    1.08864   1.10976   1.20401   1.31832   1.48893
 Alpha virt. eigenvalues --    1.56256   1.67123   1.80302   1.97894   3.50793
  Beta  occ. eigenvalues --  -19.10355 -10.18229 -10.10409 -10.10376  -1.07870
  Beta  occ. eigenvalues --   -0.74332  -0.65594  -0.59906  -0.51519  -0.43353
  Beta  occ. eigenvalues --   -0.42908  -0.40682  -0.39868  -0.26041  -0.23592
  Beta virt. eigenvalues --   -0.04847   0.01898   0.09842   0.10914   0.16147
  Beta virt. eigenvalues --    0.17021   0.20566   0.21212   0.26319   0.55583
  Beta virt. eigenvalues --    0.66890   0.68072   0.74808   0.76493   0.77976
  Beta virt. eigenvalues --    0.81060   0.84566   0.90132   0.92515   0.98002
  Beta virt. eigenvalues --    1.06304   1.09242   1.11279   1.20890   1.32363
  Beta virt. eigenvalues --    1.48986   1.56467   1.69068   1.81114   1.98148
  Beta virt. eigenvalues --    3.50938
          Condensed to atoms (all electrons):
               1          2          3          4          5          6
     1  C    5.543729  -0.011685   0.370880   0.377203   0.360573  -0.010633
     2  C   -0.011685   5.030039  -0.002699  -0.001920  -0.002885   0.608897
     3  H    0.370880  -0.002699   0.499135  -0.025225  -0.032178  -0.001084
     4  H    0.377203  -0.001920  -0.025225   0.468020  -0.026559  -0.003612
     5  H    0.360573  -0.002885  -0.032178  -0.026559   0.518865  -0.000146
     6  C   -0.010633   0.608897  -0.001084  -0.003612  -0.000146   5.213682
     7  H    0.000688  -0.053502  -0.000008  -0.000037   0.000009   0.394118
     8  O   -0.023276   0.310276  -0.000290   0.000595   0.003289  -0.116808
     9  H    0.011067  -0.042197   0.000654   0.000148  -0.000418  -0.000615
               7          8          9
     1  C    0.000688  -0.023276   0.011067
     2  C   -0.053502   0.310276  -0.042197
     3  H   -0.000008  -0.000290   0.000654
     4  H   -0.000037   0.000595   0.000148
     5  H    0.000009   0.003289  -0.000418
     6  C    0.394118  -0.116808  -0.000615
     7  H    0.428718  -0.000274  -0.000021
     8  O   -0.000274   8.230193   0.237774
     9  H   -0.000021   0.237774   0.427423
          Atomic-Atomic Spin Densities.
               1          2          3          4          5          6
     1  C    1.158176  -0.040731  -0.013159  -0.013106  -0.014698  -0.029626
     2  C   -0.040731  -0.061166   0.001165   0.001334   0.001555   0.016371
     3  H   -0.013159   0.001165  -0.041068   0.001135   0.001716   0.000403
     4  H   -0.013106   0.001334   0.001135  -0.041846   0.001105   0.000445
     5  H   -0.014698   0.001555   0.001716   0.001105  -0.038538   0.000409
     6  C   -0.029626   0.016371   0.000403   0.000445   0.000409   0.193221
     7  H    0.000533  -0.000707  -0.000006  -0.000019  -0.000003  -0.001234
     8  O   -0.016784   0.000676   0.000213   0.000027   0.000901  -0.000827
     9  H    0.009753   0.002914  -0.000399  -0.000028  -0.001217  -0.000024
               7          8          9
     1  C    0.000533  -0.016784   0.009753
     2  C   -0.000707   0.000676   0.002914
     3  H   -0.000006   0.000213  -0.000399
     4  H   -0.000019   0.000027  -0.000028
     5  H   -0.000003   0.000901  -0.001217
     6  C   -0.001234  -0.000827  -0.000024
     7  H   -0.007316  -0.000028   0.000007
     8  O   -0.000028   0.036148  -0.009009
     9  H    0.000007  -0.009009   0.004278
 Mulliken charges and spin densities:
               1          2
     1  C   -0.618545   1.040359
     2  C    0.165677  -0.078590
     3  H    0.190815  -0.050000
     4  H    0.211388  -0.050953
     5  H    0.179451  -0.048769
     6  C   -0.083800   0.179138
     7  H    0.230308  -0.008774
     8  O   -0.641478   0.011317
     9  H    0.366185   0.006273
 Sum of Mulliken charges =   0.00000   1.00000
 Mulliken charges and spin densities with hydrogens summed into heavy atoms:
               1          2
     1  C   -0.036892   0.890637
     2  C    0.165677  -0.078590
     6  C    0.146509   0.170364
     8  O   -0.275294   0.017590
 APT charges:
               1
     1  C   -0.095719
     2  C    0.384393
     3  H    0.042070
     4  H    0.042611
     5  H    0.058567
     6  C   -0.451808
     7  H    0.219754
     8  O   -0.489525
     9  H    0.289657
 Sum of APT charges =   0.00000
 APT charges with hydrogens summed into heavy atoms:
               1
     1  C    0.047529
     2  C    0.384393
     6  C   -0.232054
     8  O   -0.199868
 Electronic spatial extent (au):  <R**2>=           4358.2545
 Charge=              0.0000 electrons
 Dipole moment (field-independent basis, Debye):
    X=              0.3792    Y=             -1.7714    Z=             -0.2949  Tot=              1.8354
 Quadrupole moment (field-independent basis, Debye-Ang):
   XX=            -25.0738   YY=            -43.4657   ZZ=            -23.5972
   XY=              6.1398   XZ=             -1.4727   YZ=              0.4328
 Traceless Quadrupole moment (field-independent basis, Debye-Ang):
   XX=              5.6384   YY=            -12.7535   ZZ=              7.1151
   XY=              6.1398   XZ=             -1.4727   YZ=              0.4328
 Octapole moment (field-independent basis, Debye-Ang**2):
  XXX=            258.9392  YYY=           -499.4856  ZZZ=            -59.5159  XYY=            144.6706
  XXY=           -128.0252  XXZ=             -2.0404  XZZ=             81.6193  YZZ=           -111.3011
  YYZ=            -12.8951  XYZ=            -14.3162
 Hexadecapole moment (field-independent basis, Debye-Ang**3):
 XXXX=          -1957.5327 YYYY=          -4560.0942 ZZZZ=           -197.3940 XXXY=           1259.7867
 XXXZ=            105.2029 YYYX=           1719.8730 YYYZ=           -212.1950 ZZZX=            226.6692
 ZZZY=           -256.2013 XXYY=          -1037.4442 XXZZ=           -324.8932 YYZZ=           -594.4665
 XXYZ=             35.2657 YYXZ=            -14.4539 ZZXY=            390.5165
 N-N= 1.057586114366D+02 E-N=-6.575765253813D+02  KE= 1.897001668851D+02
  Exact polarizability:  36.201  -9.949  29.289 -11.937   1.873  27.537
 Approx polarizability:  63.344 -17.355  36.982 -28.507   6.896  42.022
                          Isotropic Fermi Contact Couplings
        Atom                 a.u.       MegaHertz       Gauss      10(-4) cm-1
     1  C(13)              0.12801     143.90884      51.35025      48.00282
     2  C(13)             -0.01431     -16.08332      -5.73893      -5.36482
     3  H(1)              -0.01277     -57.07704     -20.36651     -19.03885
     4  H(1)              -0.01283     -57.36037     -20.46761     -19.13336
     5  H(1)              -0.01246     -55.70569     -19.87717     -18.58142
     6  C(13)              0.03132      35.21157      12.56436      11.74532
     7  H(1)              -0.00282     -12.59034      -4.49255      -4.19969
     8  O(17)              0.03024     -18.33036      -6.54073      -6.11435
     9  H(1)              -0.00103      -4.61150      -1.64550      -1.53823
 --------------------------------------------------------
       Center         ----  Spin Dipole Couplings  ----
                      3XX-RR        3YY-RR        3ZZ-RR
 --------------------------------------------------------
     1   Atom       -0.350163      0.681131     -0.330968
     2   Atom        0.011890     -0.022141      0.010250
     3   Atom       -0.020945      0.013036      0.007909
     4   Atom       -0.042198     -0.019388      0.061586
     5   Atom        0.074923     -0.013508     -0.061416
     6   Atom       -0.068930      0.122202     -0.053272
     7   Atom        0.006352     -0.002384     -0.003968
     8   Atom       -0.018386      0.037135     -0.018748
     9   Atom       -0.005958     -0.003657      0.009615
 --------------------------------------------------------
                        XY            XZ            YZ
 --------------------------------------------------------
     1   Atom       -0.374486      0.128642     -0.400198
     2   Atom        0.003473     -0.028378     -0.002278
     3   Atom        0.023152      0.062201      0.031249
     4   Atom       -0.022613     -0.048192     -0.000763
     5   Atom        0.015513     -0.013351     -0.022605
     6   Atom       -0.066119      0.038005     -0.086433
     7   Atom       -0.010684     -0.012831      0.000332
     8   Atom        0.029263     -0.026262     -0.039117
     9   Atom        0.002459     -0.010779     -0.007953
 --------------------------------------------------------


 ---------------------------------------------------------------------------------
              Anisotropic Spin Dipole Couplings in Principal Axis System
 ---------------------------------------------------------------------------------

       Atom             a.u.   MegaHertz   Gauss  10(-4) cm-1        Axes

              Baa    -0.4724   -63.389   -22.619   -21.144  0.8172  0.4069  0.4081
     1 C(13)  Bbb    -0.4692   -62.968   -22.469   -21.004 -0.4962  0.1367  0.8574
              Bcc     0.9416   126.357    45.087    42.148 -0.2931  0.9032 -0.3137
 
              Baa    -0.0225    -3.023    -1.079    -1.008 -0.1504  0.9867 -0.0616
     2 C(13)  Bbb    -0.0172    -2.308    -0.824    -0.770  0.6814  0.1486  0.7167
              Bcc     0.0397     5.331     1.902     1.778  0.7163  0.0658 -0.6947
 
              Baa    -0.0704   -37.559   -13.402   -12.528  0.7793  0.0184 -0.6264
     3 H(1)   Bbb    -0.0095    -5.085    -1.814    -1.696 -0.3272  0.8644 -0.3818
              Bcc     0.0799    42.644    15.216    14.225  0.5344  0.5025  0.6796
 
              Baa    -0.0702   -37.430   -13.356   -12.485  0.8641  0.3897  0.3184
     4 H(1)   Bbb    -0.0109    -5.841    -2.084    -1.948 -0.3353  0.9177 -0.2131
              Bcc     0.0811    43.271    15.440    14.434 -0.3752  0.0774  0.9237
 
              Baa    -0.0707   -37.731   -13.463   -12.586  0.0477  0.3559  0.9333
     5 H(1)   Bbb    -0.0089    -4.775    -1.704    -1.593 -0.2229  0.9146 -0.3374
              Bcc     0.0797    42.506    15.167    14.179  0.9737  0.1919 -0.1229
 
              Baa    -0.1001   -13.428    -4.791    -4.479  0.7305 -0.0476 -0.6813
     6 C(13)  Bbb    -0.0805   -10.802    -3.854    -3.603  0.6181  0.4702  0.6299
              Bcc     0.1806    24.230     8.646     8.082 -0.2904  0.8813 -0.3729
 
              Baa    -0.0157    -8.374    -2.988    -2.793  0.6028  0.4678  0.6464
     7 H(1)   Bbb    -0.0033    -1.779    -0.635    -0.594  0.0508  0.7860 -0.6161
              Bcc     0.0190    10.153     3.623     3.387  0.7962 -0.4043 -0.4501
 
              Baa    -0.0461     3.336     1.190     1.113  0.5741  0.1741  0.8000
     8 O(17)  Bbb    -0.0271     1.961     0.700     0.654  0.7218 -0.5688 -0.3942
              Bcc     0.0732    -5.298    -1.890    -1.767  0.3865  0.8038 -0.4523
 
              Baa    -0.0118    -6.311    -2.252    -2.105  0.8273  0.2436  0.5062
     9 H(1)   Bbb    -0.0064    -3.405    -1.215    -1.136 -0.3831  0.9037  0.1911
              Bcc     0.0182     9.716     3.467     3.241 -0.4109 -0.3521  0.8410
 

 ---------------------------------------------------------------------------------

 No NMR shielding tensors so no spin-rotation constants.
 Leave Link  601 at Thu Jan  7 23:58:07 2021, MaxMem=    33554432 cpu:         0.1
 (Enter /apps/applications/gaussian/G09.D01/2/default/g09/l701.exe)
 Compute integral second derivatives.
 ... and contract with generalized density number  0.
 Leave Link  701 at Thu Jan  7 23:58:07 2021, MaxMem=    33554432 cpu:         0.1
 (Enter /apps/applications/gaussian/G09.D01/2/default/g09/l702.exe)
 L702 exits ... SP integral derivatives will be done elsewhere.
 Leave Link  702 at Thu Jan  7 23:58:07 2021, MaxMem=    33554432 cpu:         0.0
 (Enter /apps/applications/gaussian/G09.D01/2/default/g09/l703.exe)
 Compute integral second derivatives, UseDBF=F ICtDFT=           0.
 Integral derivatives from FoFJK, PRISM(SPDF).
 Calling FoFJK, ICntrl=    100127 FMM=F ISym2X=0 I1Cent= 0 IOpClX= 1 NMat=1 NMatS=1 NMatT=0.
 FoFJK:  IHMeth= 1 ICntrl=  100127 DoSepK=F KAlg= 0 I1Cent=   0 FoldK=F
 IRaf=         0 NMat=   1 IRICut=       1 DoRegI=T DoRafI=F ISym2E= 0.
 FoFCou: FMM=F IPFlag=           0 FMFlag=      100000 FMFlg1=         800
         NFxFlg=           0 DoJE=F BraDBF=F KetDBF=F FulRan=T
         wScrn=  0.000000 ICntrl=  100127 IOpCl=  1 I1Cent=           0 NGrid=           0
         NMat0=    1 NMatS0=      1 NMatT0=    0 NMatD0=    1 NMtDS0=    0 NMtDT0=    0
 Symmetry not used in FoFCou.
 Leave Link  703 at Thu Jan  7 23:58:16 2021, MaxMem=    33554432 cpu:         8.8
 (Enter /apps/applications/gaussian/G09.D01/2/default/g09/l716.exe)
 Dipole        = 1.49174983D-01-6.96926557D-01-1.16010320D-01
 Polarizability= 3.62011488D+01-9.94947832D+00 2.92890805D+01
                -1.19368957D+01 1.87282976D+00 2.75370926D+01
 -------------------------------------------------------------------
 Center     Atomic                   Forces (Hartrees/Bohr)
 Number     Number              X              Y              Z
 -------------------------------------------------------------------
      1        6          -0.000196463   -0.006335819    0.012047407
      2        6          -0.010448468    0.005394521    0.005282631
      3        1          -0.007774698   -0.011420380   -0.012182810
      4        1          -0.004066785   -0.001113942    0.010759938
      5        1           0.016212781   -0.000108194   -0.000967853
      6        6           0.015989046   -0.002430239   -0.015275247
      7        1          -0.019951698    0.005429292    0.014490776
      8        8           0.035753224   -0.038009834   -0.033193856
      9        1          -0.025516939    0.048594594    0.019039014
 -------------------------------------------------------------------
 Cartesian Forces:  Max     0.048594594 RMS     0.018679037
 Force constants in Cartesian coordinates: 
                1             2             3             4             5 
      1  0.637491D+00
      2  0.173224D+00  0.138920D+00
      3 -0.529960D-01  0.205730D+00  0.597937D+00
      4  0.823863D-02 -0.210373D-01  0.658589D-02  0.101792D+01
      5 -0.113199D-01  0.311128D-01 -0.160529D-01 -0.198481D+00  0.107319D+00
      6 -0.594560D-03 -0.674152D-02 -0.508612D-03 -0.690723D+00  0.180988D+00
      7 -0.149654D+00 -0.107055D+00 -0.128466D+00 -0.904165D-04  0.263429D-02
      8 -0.109887D+00 -0.925235D-01 -0.138909D+00  0.139724D-02 -0.828377D-02
      9 -0.126694D+00 -0.134935D+00 -0.213387D+00 -0.145173D-03  0.358340D-02
     10 -0.104990D+00  0.108545D-01  0.129992D+00 -0.253860D-02  0.177437D-02
     11  0.102754D-01 -0.200125D-01 -0.655031D-01  0.413671D-02 -0.548763D-02
     12  0.130288D+00 -0.662051D-01 -0.326324D+00 -0.270901D-04  0.158348D-02
     13 -0.381875D+00 -0.778786D-01  0.478050D-01 -0.427302D-02  0.213484D-02
     14 -0.747194D-01 -0.185917D-01 -0.976850D-02  0.451655D-02 -0.408902D-02
     15  0.455130D-01 -0.103840D-01 -0.497059D-01 -0.217500D-02  0.179264D-02
     16 -0.768416D-02  0.221733D-01 -0.731752D-02 -0.687675D+00  0.150895D+00
     17  0.102631D-01 -0.197633D-01  0.653552D-02  0.174355D+00 -0.733166D-01
     18  0.272934D-02 -0.413076D-02  0.277468D-02  0.454348D+00 -0.121185D+00
     19 -0.322289D-04 -0.293793D-03  0.300942D-03  0.491495D-02 -0.141928D-02
     20 -0.143105D-03 -0.703865D-03  0.934907D-04  0.347662D-02  0.401534D-02
     21 -0.143934D-03  0.201986D-03  0.100161D-03 -0.508184D-02  0.225623D-02
     22 -0.258248D-02 -0.247956D-02  0.598707D-02 -0.307394D+00  0.230349D-01
     23  0.181598D-02 -0.156894D-01  0.141364D-01  0.281082D-01 -0.575680D-01
     24 -0.339344D-03  0.167450D-01 -0.122833D-01  0.222200D+00 -0.290802D-01
     25  0.108748D-02  0.249264D-02 -0.189190D-02 -0.290993D-01  0.307464D-01
     26  0.491061D-03 -0.274812D-02  0.373725D-02  0.352789D-02  0.629778D-02
     27  0.223697D-02 -0.280748D-03  0.139772D-02  0.150186D-01 -0.238864D-01
                6             7             8             9            10 
      6  0.590554D+00
      7 -0.418298D-03  0.149470D+00
      8 -0.928536D-03  0.111435D+00  0.984476D-01
      9  0.287951D-03  0.138275D+00  0.140961D+00  0.219992D+00
     10 -0.579327D-03  0.886940D-02 -0.237245D-02 -0.173846D-01  0.104147D+00
     11  0.321842D-02  0.756124D-02  0.949445D-03 -0.136330D-01 -0.158976D-01
     12 -0.220270D-02  0.103584D-01 -0.462639D-03 -0.126639D-01 -0.137776D+00
     13  0.611021D-03 -0.782932D-02  0.137695D-02  0.560635D-02 -0.723371D-02
     14  0.283021D-02 -0.133553D-01 -0.602114D-03  0.453774D-02  0.486160D-02
     15 -0.559728D-03 -0.205311D-01 -0.217692D-02  0.566736D-02  0.282802D-01
     16  0.467191D+00  0.333742D-03 -0.139011D-02  0.102217D-02  0.843378D-03
     17 -0.139983D+00 -0.766391D-04  0.732229D-03  0.187918D-03  0.835208D-03
     18 -0.380832D+00 -0.246264D-03  0.134611D-02 -0.358797D-03 -0.196503D-02
     19 -0.146348D-02  0.933946D-04  0.434308D-04 -0.123028D-03  0.332550D-04
     20 -0.284543D-02  0.111274D-03  0.220206D-04 -0.102631D-03  0.868712D-04
     21  0.485806D-02  0.799685D-04 -0.115545D-03 -0.751487D-04  0.780816D-04
     22  0.207506D+00 -0.252628D-03  0.877021D-03 -0.824075D-03  0.128257D-02
     23 -0.329472D-01 -0.208686D-03  0.160012D-02 -0.194628D-03 -0.203818D-04
     24 -0.193050D+00  0.102113D-02 -0.300552D-03  0.842819D-03  0.288171D-03
     25  0.184703D-01 -0.940352D-03 -0.148041D-02  0.266848D-03 -0.413490D-03
     26 -0.359095D-02 -0.104642D-02 -0.342092D-03 -0.405124D-03 -0.122096D-03
     27 -0.185465D-01 -0.734874D-04  0.585152D-03 -0.304487D-03 -0.933800D-03
               11            12            13            14            15 
     11  0.231275D-01
     12  0.672267D-01  0.338397D+00
     13 -0.284002D-02 -0.262722D-02  0.397373D+00
     14  0.332145D-02 -0.135365D-02  0.800832D-01  0.200148D-01
     15  0.546469D-02  0.119390D-02 -0.509983D-01  0.225283D-02  0.479325D-01
     16 -0.196735D-02  0.551346D-03  0.115149D-02 -0.171118D-02  0.960465D-03
     17 -0.936969D-03 -0.109700D-02  0.100459D-03  0.398055D-03  0.273903D-03
     18  0.250745D-02  0.110487D-02 -0.742134D-03  0.397001D-03 -0.564482D-03
     19  0.251280D-03 -0.183290D-03 -0.372821D-04  0.508102D-04 -0.102989D-03
     20  0.169723D-03  0.325511D-03 -0.114774D-03  0.969547D-04  0.153463D-05
     21  0.602331D-04 -0.154445D-03  0.842286D-04 -0.937626D-04  0.174726D-04
     22 -0.145656D-02 -0.237827D-03  0.213085D-02 -0.786265D-04  0.547791D-04
     23 -0.106494D-02  0.958743D-04 -0.233327D-02 -0.473405D-03  0.100591D-02
     24  0.706195D-03  0.449212D-03  0.241366D-02 -0.488303D-03 -0.873083D-03
     25 -0.631238D-04 -0.346797D-03  0.593333D-03  0.352390D-03 -0.100101D-02
     26 -0.659975D-04 -0.113096D-03 -0.528850D-03 -0.750883D-04  0.176946D-02
     27 -0.475611D-04  0.199761D-03 -0.215257D-02  0.168643D-02 -0.310808D-02
               16            17            18            19            20 
     16  0.102404D+01
     17 -0.265553D+00  0.124379D+00
     18 -0.706805D+00  0.191143D+00  0.552137D+00
     19 -0.318461D+00  0.826808D-01  0.228433D+00  0.310659D+00
     20  0.810991D-01 -0.351106D-01 -0.615178D-01 -0.827177D-01  0.260934D-01
     21  0.230770D+00 -0.635370D-01 -0.176310D+00 -0.228076D+00  0.622407D-01
     22 -0.151753D-01 -0.341931D-02  0.261681D-01  0.294980D-02 -0.672843D-03
     23  0.217397D-01  0.667109D-02 -0.129069D-01  0.147530D-02  0.446787D-02
     24  0.155959D-01  0.666910D-02  0.275140D-03  0.485098D-03  0.947039D-03
     25  0.262423D-02  0.814424D-03 -0.192035D-02 -0.119519D-03 -0.112549D-02
     26 -0.528555D-02 -0.305326D-02  0.434620D-02 -0.708959D-04  0.949218D-03
     27 -0.196902D-02 -0.192419D-03  0.177316D-02  0.729488D-03  0.857643D-03
               21            22            23            24            25 
     21  0.168597D+00
     22  0.155979D-02  0.365286D+00
     23 -0.112380D-02 -0.679768D-01  0.245721D+00
     24  0.259905D-02 -0.261796D+00  0.466665D-01  0.238172D+00
     25  0.729554D-03 -0.462451D-01  0.174000D-01  0.201312D-01  0.725128D-01
     26  0.110980D-03  0.521717D-01 -0.183665D+00 -0.418648D-01 -0.491369D-01
     27  0.367539D-03  0.215817D-01 -0.147322D-01 -0.361316D-01 -0.344379D-01
               26            27 
     26  0.182702D+00
     27  0.360101D-01  0.543525D-01
 Leave Link  716 at Thu Jan  7 23:58:16 2021, MaxMem=    33554432 cpu:         0.0
 (Enter /apps/applications/gaussian/G09.D01/2/default/g09/l103.exe)

 GradGradGradGradGradGradGradGradGradGradGradGradGradGradGradGradGradGrad
 Berny optimization.
 Search for a saddle point.
 Step number   1 out of a maximum of  100
 All quantities printed in internal units (Hartrees-Bohrs-Radians)
 Swapping is turned off.
 Second derivative matrix not updated -- analytic derivatives used.
 ITU=  0
     Eigenvalues ---   -0.02561  -0.00677  -0.00004   0.00037   0.00203
     Eigenvalues ---    0.01151   0.01468   0.02363   0.04004   0.07395
     Eigenvalues ---    0.10372   0.10745   0.12505   0.15739   0.33292
     Eigenvalues ---    0.42317   0.43747   0.92689   0.95247   1.04313
     Eigenvalues ---    2.75225
 Eigenvectors required to have negative eigenvalues:
                          Y1        Y2        Z2        Z1        Y3
   1                    0.63529  -0.48124   0.25782  -0.25766  -0.22947
                          Y5        X1        X9        X3        Z5
   1                   -0.21765  -0.20155   0.13061   0.12260   0.10863
 Eigenvalue     2 is  -6.77D-03 should be greater than     0.000000 Eigenvector:
                          Y5        X3        X4        Z5        Y4
   1                    0.47536   0.41272  -0.38444   0.36924  -0.31608
                          Z3        X7        Z7        Y7        Y9
   1                   -0.30225   0.15499   0.14892   0.14511  -0.09773
 Eigenvalue     3 is  -3.69D-05 should be greater than     0.000000 Eigenvector:
                          Y7        Y4        Z7        X4        Y3
   1                    0.46615  -0.43443  -0.41078   0.30585   0.28191
                          X7        Z5        Y5        Z4        Y2
   1                   -0.24087  -0.22614   0.20783   0.16040  -0.13001
 RFO step:  Lambda0=3.119625743D-03 Lambda=-2.25025505D-02.
 Linear search not attempted -- option 19 set.
 Maximum step size (   0.300) exceeded in Quadratic search.
    -- Step size scaled by   0.322
 TrRot=  0.007689  0.016134  0.001268 -2.684375  0.002923  2.684661
 Variable       Old X    -DE/DX   Delta X   Delta X   Delta X     New X
                                 (Linear)    (Quad)   (Total)
    X1       -6.14804  -0.00020   0.00000  -0.01807  -0.01961  -6.16765
    Y1        6.19131  -0.00634   0.00000   0.04366   0.05437   6.24568
    Z1        2.85971   0.01205   0.00000  -0.01850  -0.02538   2.83433
    X2       -7.22469  -0.01045   0.00000   0.01218   0.01413  -7.21056
    Y2       10.16795   0.00539   0.00000  -0.01788  -0.00520  10.16275
    Z2        1.06609   0.00528   0.00000   0.01693   0.01236   1.07846
    X3       -7.22574  -0.00777   0.00000  -0.06407  -0.06195  -7.28769
    Y3        5.22367  -0.01142   0.00000  -0.09084  -0.07881   5.14486
    Z3        1.48024  -0.01218   0.00000   0.09160   0.08036   1.56060
    X4       -6.95730  -0.00407   0.00000   0.08153   0.07502  -6.88229
    Y4        6.52107  -0.00111   0.00000   0.03998   0.04808   6.56915
    Z4        4.67034   0.01076   0.00000   0.03688   0.02856   4.69890
    X5       -4.19536   0.01621   0.00000   0.03836   0.03749  -4.15786
    Y5        6.56780  -0.00011   0.00000  -0.19213  -0.18049   6.38731
    Z5        2.61297  -0.00097   0.00000  -0.04548  -0.04690   2.56606
    X6       -9.04448   0.01599   0.00000  -0.01283  -0.01427  -9.05875
    Y6       10.69852  -0.00243   0.00000   0.00719   0.01775  10.71627
    Z6        2.34127  -0.01528   0.00000  -0.02190  -0.03059   2.31068
    X7      -10.57537  -0.01995   0.00000  -0.04632  -0.05081 -10.62618
    Y7       11.11185   0.00543   0.00000  -0.02268  -0.01401  11.09784
    Z7        3.47104   0.01449   0.00000  -0.02889  -0.04120   3.42984
    X8       -5.27403   0.03575   0.00000   0.01650   0.02250  -5.25152
    Y8       10.06438  -0.03801   0.00000   0.03164   0.04686  10.11124
    Z8       -0.44640  -0.03319   0.00000  -0.01043  -0.00993  -0.45633
    X9       -4.60458  -0.02552   0.00000  -0.01029  -0.00250  -4.60708
    Y9        8.19572   0.04859   0.00000   0.09542   0.11145   8.30717
    Z9       -0.97394   0.01904   0.00000   0.03286   0.03272  -0.94121
         Item               Value     Threshold  Converged?
 Maximum Force            0.048595     0.000450     NO 
 RMS     Force            0.018679     0.000300     NO 
 Maximum Displacement     0.180491     0.001800     NO 
 RMS     Displacement     0.057102     0.001200     NO 
 Predicted change in Energy=-5.649398D-03
 Lowest energy point so far.  Saving SCF results.
 GradGradGradGradGradGradGradGradGradGradGradGradGradGradGradGradGradGrad

 Leave Link  103 at Thu Jan  7 23:58:16 2021, MaxMem=    33554432 cpu:         0.0
 (Enter /apps/applications/gaussian/G09.D01/2/default/g09/l202.exe)
                          Input orientation:                          
 ---------------------------------------------------------------------
 Center     Atomic      Atomic             Coordinates (Angstroms)
 Number     Number       Type             X           Y           Z
 ---------------------------------------------------------------------
      1          6           0       -3.263777    3.305073    1.499864
      2          6           0       -3.815664    5.377898    0.570694
      3          1           0       -3.856478    2.722544    0.825833
      4          1           0       -3.641950    3.476244    2.486551
      5          1           0       -2.200247    3.380019    1.357901
      6          6           0       -4.793684    5.670804    1.222759
      7          1           0       -5.623131    5.872725    1.814994
      8          8           0       -2.778987    5.350640   -0.241478
      9          1           0       -2.437964    4.395965   -0.498069
 ---------------------------------------------------------------------
                    Distance matrix (angstroms):
                    1          2          3          4          5
     1  C    0.000000
     2  C    2.337636   0.000000
     3  H    1.070024   2.667896   0.000000
     4  H    1.070451   2.704991   1.836320   0.000000
     5  H    1.075578   2.687153   1.859696   1.833472   0.000000
     6  C    2.830916   1.211406   3.118997   2.782042   3.462929
     7  H    3.501241   2.249460   3.744749   3.181067   4.258949
     8  O    2.729769   1.317219   3.034309   3.420557   2.603133
     9  H    2.421519   2.001126   2.562272   3.347153   2.129151
                    6          7          8          9
     6  C    0.000000
     7  H    1.038988   0.000000
     8  O    2.511075   3.548352   0.000000
     9  H    3.183690   4.204327   1.045725   0.000000
 Symmetry turned off by external request.
 Stoichiometry    C3H5O(2)
 Framework group  C1[X(C3H5O)]
 Deg. of freedom    21
 Full point group                 C1      NOp   1
 Rotational constants (GHZ):      9.0672825      7.3161606      4.1754770
 Leave Link  202 at Thu Jan  7 23:58:16 2021, MaxMem=    33554432 cpu:         0.0
 (Enter /apps/applications/gaussian/G09.D01/2/default/g09/l301.exe)
 Standard basis: 3-21G (6D, 7F)
 Ernie: Thresh=  0.10000D-02 Tol=  0.10000D-05 Strict=F.
    46 basis functions,    75 primitive gaussians,    46 cartesian basis functions
    16 alpha electrons       15 beta electrons
       nuclear repulsion energy       105.6175175692 Hartrees.
 IExCor=  402 DFT=T Ex+Corr=B3LYP ExCW=0 ScaHFX=  0.200000
 ScaDFX=  0.800000  0.720000  1.000000  0.810000 ScalE2=  1.000000  1.000000
 IRadAn=      0 IRanWt=     -1 IRanGd=            0 ICorTp=0 IEmpDi=  4
 NAtoms=    9 NActive=    9 NUniq=    9 SFac= 1.00D+00 NAtFMM=   60 NAOKFM=F Big=F
 Integral buffers will be    131072 words long.
 Raffenetti 2 integral format.
 Two-electron integral symmetry is turned off.
 Leave Link  301 at Thu Jan  7 23:58:16 2021, MaxMem=    33554432 cpu:         0.0
 (Enter /apps/applications/gaussian/G09.D01/2/default/g09/l302.exe)
 NPDir=0 NMtPBC=     1 NCelOv=     1 NCel=       1 NClECP=     1 NCelD=      1
         NCelK=      1 NCelE2=     1 NClLst=     1 CellRange=     0.0.
 One-electron integrals computed using PRISM.
 NBasis=    46 RedAO= T EigKep=  2.43D-03  NBF=    46
 NBsUse=    46 1.00D-06 EigRej= -1.00D+00 NBFU=    46
 Precomputing XC quadrature grid using
 IXCGrd= 4 IRadAn=           0 IRanWt=          -1 IRanGd=           0 AccXCQ= 0.00D+00.
 Generated NRdTot=       0 NPtTot=           0 NUsed=           0 NTot=          32
 NSgBfM=    46    46    46    46    46 MxSgAt=     9 MxSgA2=     9.
 Leave Link  302 at Thu Jan  7 23:58:16 2021, MaxMem=    33554432 cpu:         0.1
 (Enter /apps/applications/gaussian/G09.D01/2/default/g09/l303.exe)
 DipDrv:  MaxL=1.
 Leave Link  303 at Thu Jan  7 23:58:16 2021, MaxMem=    33554432 cpu:         0.0
 (Enter /apps/applications/gaussian/G09.D01/2/default/g09/l401.exe)
 Initial guess from the checkpoint file:  "/nobackup/chmrsh/Scratch/Gau-28896.chk"
 B after Tr=     0.018681    0.031557    0.005799
         Rot=    0.999996   -0.001184    0.002687   -0.000496 Ang=  -0.34 deg.
 Guess basis will be translated and rotated to current coordinates.
 JPrj=2 DoOrth=T DoCkMO=T.
 Initial guess <Sx>= 0.0000 <Sy>= 0.0000 <Sz>= 0.5000 <S**2>= 0.7564 S= 0.5032
 Generating alternative initial guess.
 ExpMin= 1.83D-01 ExpMax= 3.22D+02 ExpMxC= 3.22D+02 IAcc=1 IRadAn=         1 AccDes= 0.00D+00
 Harris functional with IExCor=  402 and IRadAn=       1 diagonalized for initial guess.
 HarFok:  IExCor=  402 AccDes= 0.00D+00 IRadAn=         1 IDoV= 1 UseB2=F ITyADJ=14
 ICtDFT=  3500011 ScaDFX=  1.000000  1.000000  1.000000  1.000000
 FoFCou: FMM=F IPFlag=           0 FMFlag=      100000 FMFlg1=           0
         NFxFlg=           0 DoJE=T BraDBF=F KetDBF=T FulRan=T
         wScrn=  0.000000 ICntrl=     500 IOpCl=  0 I1Cent=   200000004 NGrid=           0
         NMat0=    1 NMatS0=      1 NMatT0=    0 NMatD0=    1 NMtDS0=    0 NMtDT0=    0
 Symmetry not used in FoFCou.
 Harris En= -191.334362516826    
 Leave Link  401 at Thu Jan  7 23:58:16 2021, MaxMem=    33554432 cpu:         0.2
 (Enter /apps/applications/gaussian/G09.D01/2/default/g09/l508.exe)
 Direct SCF.
 Tight linear equation convergence will be used.
 UB3LYP wavefunction.
 Quadratic Convergence SCF Method.
 Line search only if initial step raises energy.
 Two-electron integral symmetry not used.
 ReadGW:  IGet=1 IStart=         402 Next=         402 LGW=           0.
 Keep R1 and R2 ints in memory in canonical form, NReq=2054730.
 FoFCou: FMM=F IPFlag=           0 FMFlag=           0 FMFlg1=           0
         NFxFlg=           0 DoJE=F BraDBF=F KetDBF=F FulRan=T
         wScrn=  0.000000 ICntrl=     600 IOpCl=  0 I1Cent=           0 NGrid=           0
         NMat0=    1 NMatS0=   1081 NMatT0=    0 NMatD0=    1 NMtDS0=    0 NMtDT0=    0
 Symmetry not used in FoFCou.
 Iteration   1 EE= -191.302043159565                                    Grad=7.216D-02 Max rot=    0.8986 deg.
 Gradient too large for Newton-Raphson -- use scaled steepest descent instead.
 Alpha Gap=     0.401 HL deriv= 3.27D-03
  Beta Gap=     0.480 HL deriv= 1.07D-03
     ILin= 1 X=0.000D+00 Y=-1.913020431596D+02 DE= 0.00D+00 F= -5.34D-03
     ILin= 2 X=3.000D-01 Y=-1.913034053206D+02 DE=-1.36D-03 F= -3.74D-03
     ILin= 3 X=6.000D-01 Y=-1.913042879234D+02 DE=-2.24D-03 F= -2.14D-03
     ILin= 4 X=1.200D+00 Y=-1.913046145187D+02 DE=-2.57D-03 F=  1.05D-03
     Accept linear search using points  3 and  4.
     An  expanding polynomial of degree  4 produced  0.9427
 Iteration   2 EE= -191.304709354388     Delta-E=       -0.002666194823 Grad=2.852D-02 Max rot=    0.2683 deg.
 Gradient too large for Newton-Raphson -- use scaled steepest descent instead.
 Alpha Gap=     0.405 HL deriv= 4.84D-03
  Beta Gap=     0.480 HL deriv= 6.79D-04
     ILin= 1 X=0.000D+00 Y=-1.913047093544D+02 DE= 0.00D+00 F= -1.26D-03
     ILin= 2 X=5.000D-01 Y=-1.913051005987D+02 DE=-3.91D-04 F= -3.03D-04
     ILin= 3 X=1.100D+00 Y=-1.913049367516D+02 DE=-2.27D-04 F=  8.48D-04
     An  expanding polynomial of degree  3 produced  0.6577
 Iteration   3 EE= -191.305124442518     Delta-E=       -0.000415088131 Grad=1.894D-02 Max rot=    0.2116 deg.
 Gradient too large for Newton-Raphson -- use scaled steepest descent instead.
 Alpha Gap=     0.403 HL deriv= 3.35D-03
  Beta Gap=     0.480 HL deriv= 8.49D-04
     ILin= 1 X=0.000D+00 Y=-1.913051244425D+02 DE= 0.00D+00 F= -5.73D-04
     ILin= 2 X=8.000D-01 Y=-1.913053171229D+02 DE=-1.93D-04 F=  9.17D-05
     Accept linear search using points  1 and  2.
     An  expanding polynomial of degree  2 produced  0.6354
 Iteration   4 EE= -191.305320948740     Delta-E=       -0.000196506221 Grad=1.334D-02 Max rot=    0.1521 deg.
 Gradient too large for Newton-Raphson -- use scaled steepest descent instead.
 Alpha Gap=     0.404 HL deriv= 2.76D-03
  Beta Gap=     0.480 HL deriv= 2.54D-04
     ILin= 1 X=0.000D+00 Y=-1.913053209487D+02 DE= 0.00D+00 F= -2.99D-04
     ILin= 2 X=6.000D-01 Y=-1.913054297976D+02 DE=-1.09D-04 F= -6.40D-05
     ILin= 3 X=1.300D+00 Y=-1.913053788003D+02 DE=-5.79D-05 F=  2.10D-04
     An  expanding polynomial of degree  3 produced  0.7638
 Iteration   5 EE= -191.305435038039     Delta-E=       -0.000114089300 Grad=1.199D-02 Max rot=    0.1560 deg.
 Gradient too large for Newton-Raphson -- use scaled steepest descent instead.
 Alpha Gap=     0.403 HL deriv= 1.91D-03
  Beta Gap=     0.480 HL deriv= 6.57D-04
     ILin= 1 X=0.000D+00 Y=-1.913054350380D+02 DE= 0.00D+00 F= -2.31D-04
     ILin= 2 X=7.000D-01 Y=-1.913055003715D+02 DE=-6.53D-05 F=  4.49D-05
     Accept linear search using points  1 and  2.
     An  expanding polynomial of degree  2 produced  0.5048
 Iteration   6 EE= -191.305501607425     Delta-E=       -0.000066569386 Grad=6.936D-03 Max rot=    0.1087 deg.
 QCNR:  CnvC1=3.07D-09 CnvC2=3.07D-08
 LinEq1:  Iter=  0 NonCon=     1 RMS=5.71D-04 Max=9.02D-03 NDo=     1
 AX will form     1 AO Fock derivatives at one time.
 LinEq1:  Iter=  1 NonCon=     1 RMS=1.23D-04 Max=1.26D-03 NDo=     1
 LinEq1:  Iter=  2 NonCon=     1 RMS=1.44D-04 Max=2.05D-03 NDo=     1
 LinEq1:  Iter=  3 NonCon=     1 RMS=1.06D-04 Max=1.07D-03 NDo=     1
 LinEq1:  Iter=  4 NonCon=     1 RMS=7.25D-05 Max=6.25D-04 NDo=     1
 LinEq1:  Iter=  5 NonCon=     1 RMS=2.11D-05 Max=2.06D-04 NDo=     1
 LinEq1:  Iter=  6 NonCon=     1 RMS=1.28D-05 Max=1.33D-04 NDo=     1
 LinEq1:  Iter=  7 NonCon=     1 RMS=5.12D-06 Max=4.38D-05 NDo=     1
 LinEq1:  Iter=  8 NonCon=     1 RMS=1.48D-06 Max=1.08D-05 NDo=     1
 LinEq1:  Iter=  9 NonCon=     1 RMS=5.10D-07 Max=3.41D-06 NDo=     1
 LinEq1:  Iter= 10 NonCon=     1 RMS=1.53D-07 Max=1.26D-06 NDo=     1
 LinEq1:  Iter= 11 NonCon=     1 RMS=3.75D-08 Max=2.75D-07 NDo=     1
 LinEq1:  Iter= 12 NonCon=     1 RMS=6.49D-09 Max=7.04D-08 NDo=     1
 LinEq1:  Iter= 13 NonCon=     0 RMS=9.89D-10 Max=8.20D-09 NDo=     1
 Linear equations converged to 3.074D-09 3.074D-08 after    13 iterations.
 Angle between quadratic step and gradient=  41.02 degrees.
     ILin= 1 X=0.000D+00 Y=-1.913055016074D+02 DE= 0.00D+00 F= -2.89D-04
     ILin= 2 X=1.000D+00 Y=-1.913056459787D+02 DE=-1.44D-04 F= -8.98D-08
     Reject lnstep minimum 1.000D+00 FVal=-1.913056459787D+02 Lims=  0.00D+00  1.00D+00
     ILin= 3 X=2.000D+00 Y=-1.913055018749D+02 DE=-2.68D-07 F=  2.88D-04
     An  expanding polynomial of degree  3 produced  1.0005
     Minimum is close to point  2 DX=  4.64D-04 DF= -3.10D-11 DXR=  4.63D-04 DFR=  2.15D-07 which will be used.
 Iteration   7 EE= -191.305645978692     Delta-E=       -0.000144371267 Grad=5.898D-05 Max rot=    0.0008 deg.
 QCNR:  CnvC1=5.90D-10 CnvC2=5.90D-09
 LinEq1:  Iter=  0 NonCon=     1 RMS=3.71D-06 Max=4.36D-05 NDo=     1
 LinEq1:  Iter=  1 NonCon=     1 RMS=2.77D-06 Max=3.58D-05 NDo=     1
 LinEq1:  Iter=  2 NonCon=     1 RMS=2.31D-06 Max=2.62D-05 NDo=     1
 LinEq1:  Iter=  3 NonCon=     1 RMS=1.87D-06 Max=2.65D-05 NDo=     1
 LinEq1:  Iter=  4 NonCon=     1 RMS=1.01D-06 Max=9.12D-06 NDo=     1
 LinEq1:  Iter=  5 NonCon=     1 RMS=6.20D-07 Max=5.02D-06 NDo=     1
 LinEq1:  Iter=  6 NonCon=     1 RMS=3.49D-07 Max=2.38D-06 NDo=     1
 LinEq1:  Iter=  7 NonCon=     1 RMS=1.10D-07 Max=9.91D-07 NDo=     1
 LinEq1:  Iter=  8 NonCon=     1 RMS=3.17D-08 Max=2.66D-07 NDo=     1
 LinEq1:  Iter=  9 NonCon=     1 RMS=6.21D-09 Max=4.14D-08 NDo=     1
 LinEq1:  Iter= 10 NonCon=     1 RMS=1.61D-09 Max=1.04D-08 NDo=     1
 LinEq1:  Iter= 11 NonCon=     0 RMS=3.12D-10 Max=2.04D-09 NDo=     1
 Linear equations converged to 5.898D-10 5.898D-09 after    11 iterations.
 Angle between quadratic step and gradient=  45.46 degrees.
     ILin= 1 X=0.000D+00 Y=-1.913056459787D+02 DE= 0.00D+00 F= -1.24D-08
     ILin= 2 X=1.000D+00 Y=-1.913056459849D+02 DE=-6.22D-09
 Iteration   8 EE= -191.305645984912     Delta-E=       -0.000000006220 Grad=3.095D-09 Max rot=    0.0000 deg.
 Rotation gradient small -- convergence achieved.
 SCF Done:  E(UB3LYP) =  -191.305645985     a.u. after    8 cycles
            Convg  =    0.3095D-08                    42 Fock formations.
              S**2 =  0.7585                  -V/T =  2.0087
 <Sx>= 0.0000 <Sy>= 0.0000 <Sz>= 0.5000 <S**2>= 0.7585 S= 0.5042
 <L.S>= 0.000000000000E+00
 Annihilation of the first spin contaminant:
 S**2 before annihilation     0.7585,   after     0.7500
 Leave Link  508 at Thu Jan  7 23:58:45 2021, MaxMem=    33554432 cpu:        29.0
 (Enter /apps/applications/gaussian/G09.D01/2/default/g09/l801.exe)
 DoSCS=F DFT=T ScalE2(SS,OS)=  1.000000  1.000000
 Range of M.O.s used for correlation:     1    46
 NBasis=    46 NAE=    16 NBE=    15 NFC=     0 NFV=     0
 NROrb=     46 NOA=    16 NOB=    15 NVA=    30 NVB=    31
 Leave Link  801 at Thu Jan  7 23:58:45 2021, MaxMem=    33554432 cpu:         0.0
 (Enter /apps/applications/gaussian/G09.D01/2/default/g09/l1101.exe)
 Using compressed storage, NAtomX=     9.
 Will process     10 centers per pass.
 Leave Link 1101 at Thu Jan  7 23:58:46 2021, MaxMem=    33554432 cpu:         0.1
 (Enter /apps/applications/gaussian/G09.D01/2/default/g09/l1102.exe)
 Symmetrizing basis deriv contribution to polar:
 IMax=3 JMax=2 DiffMx= 0.00D+00
 Leave Link 1102 at Thu Jan  7 23:58:46 2021, MaxMem=    33554432 cpu:         0.0
 (Enter /apps/applications/gaussian/G09.D01/2/default/g09/l1110.exe)
 Forming Gx(P) for the SCF density, NAtomX=     9.
 Integral derivatives from FoFJK, PRISM(SPDF).
 Do as many integral derivatives as possible in FoFJK.
 G2DrvN: MDV=      33554256.
 G2DrvN: will do    10 centers at a time, making    1 passes.
 Calling FoFCou, ICntrl=  3107 FMM=F I1Cent=   0 AccDes= 0.00D+00.
 FoFJK:  IHMeth= 1 ICntrl=    3107 DoSepK=F KAlg= 0 I1Cent=   0 FoldK=F
 IRaf=         0 NMat=   1 IRICut=       1 DoRegI=T DoRafI=F ISym2E= 0.
 FoFCou: FMM=F IPFlag=           0 FMFlag=      100000 FMFlg1=           0
         NFxFlg=           0 DoJE=F BraDBF=F KetDBF=F FulRan=T
         wScrn=  0.000000 ICntrl=    3107 IOpCl=  1 I1Cent=           0 NGrid=           0
         NMat0=    1 NMatS0=      1 NMatT0=    0 NMatD0=    1 NMtDS0=    0 NMtDT0=    0
 Symmetry not used in FoFCou.
 End of G2Drv F.D. properties file   721 does not exist.
 End of G2Drv F.D. properties file   722 does not exist.
 End of G2Drv F.D. properties file   788 does not exist.
 Leave Link 1110 at Thu Jan  7 23:58:56 2021, MaxMem=    33554432 cpu:        10.1
 (Enter /apps/applications/gaussian/G09.D01/2/default/g09/l1002.exe)
 Minotr:  UHF open shell wavefunction.
          IDoAtm=111111111
          Direct CPHF calculation.
          Differentiating once with respect to electric field.
                with respect to dipole field.
          Differentiating once with respect to nuclear coordinates.
          Requested convergence is 1.0D-08 RMS, and 1.0D-07 maximum.
          Secondary convergence is 1.0D-12 RMS, and 1.0D-12 maximum.
          NewPWx=T KeepS1=F KeepF1=F KeepIn=T MapXYZ=F SortEE=F KeepMc=T.
          MDV=      33554246 using IRadAn=       2.
 Generate precomputed XC quadrature information.
 Keep R1 and R2 ints in memory in canonical form, NReq=2035813.
 FoFCou: FMM=F IPFlag=           0 FMFlag=           0 FMFlg1=           0
         NFxFlg=           0 DoJE=F BraDBF=F KetDBF=F FulRan=T
         wScrn=  0.000000 ICntrl=     600 IOpCl=  0 I1Cent=           0 NGrid=           0
         NMat0=    1 NMatS0=   1081 NMatT0=    0 NMatD0=    1 NMtDS0=    0 NMtDT0=    0
 Symmetry not used in FoFCou.
          Solving linear equations simultaneously, MaxMat=       0.
          There are    30 degrees of freedom in the 1st order CPHF.  IDoFFX=6 NUNeed=     3.
     27 vectors produced by pass  0 Test12= 3.15D-15 3.33D-09 XBig12= 8.65D+01 3.19D+00.
 AX will form    27 AO Fock derivatives at one time.
     27 vectors produced by pass  1 Test12= 3.15D-15 3.33D-09 XBig12= 2.63D+01 8.20D-01.
     27 vectors produced by pass  2 Test12= 3.15D-15 3.33D-09 XBig12= 4.30D-01 1.96D-01.
     27 vectors produced by pass  3 Test12= 3.15D-15 3.33D-09 XBig12= 6.03D-04 4.77D-03.
     27 vectors produced by pass  4 Test12= 3.15D-15 3.33D-09 XBig12= 1.51D-06 2.10D-04.
     26 vectors produced by pass  5 Test12= 3.15D-15 3.33D-09 XBig12= 3.61D-09 9.53D-06.
      7 vectors produced by pass  6 Test12= 3.15D-15 3.33D-09 XBig12= 8.65D-12 3.59D-07.
      2 vectors produced by pass  7 Test12= 3.15D-15 3.33D-09 XBig12= 1.56D-14 1.79D-08.
 InvSVY:  IOpt=1 It=  1 EMax= 3.55D-15
 Solved reduced A of dimension   170 with    30 vectors.
 FullF1:  Do perturbations    1 to     3.
 Isotropic polarizability for W=    0.000000       31.48 Bohr**3.
 End of Minotr F.D. properties file   721 does not exist.
 End of Minotr F.D. properties file   722 does not exist.
 End of Minotr F.D. properties file   788 does not exist.
 Leave Link 1002 at Thu Jan  7 23:59:08 2021, MaxMem=    33554432 cpu:         9.5
 (Enter /apps/applications/gaussian/G09.D01/2/default/g09/l701.exe)
 Compute integral second derivatives.
 ... and contract with generalized density number  0.
 Leave Link  701 at Thu Jan  7 23:59:08 2021, MaxMem=    33554432 cpu:         0.1
 (Enter /apps/applications/gaussian/G09.D01/2/default/g09/l702.exe)
 L702 exits ... SP integral derivatives will be done elsewhere.
 Leave Link  702 at Thu Jan  7 23:59:08 2021, MaxMem=    33554432 cpu:         0.0
 (Enter /apps/applications/gaussian/G09.D01/2/default/g09/l703.exe)
 Compute integral second derivatives, UseDBF=F ICtDFT=           0.
 Integral derivatives from FoFJK, PRISM(SPDF).
 Calling FoFJK, ICntrl=    100127 FMM=F ISym2X=0 I1Cent= 0 IOpClX= 1 NMat=1 NMatS=1 NMatT=0.
 FoFJK:  IHMeth= 1 ICntrl=  100127 DoSepK=F KAlg= 0 I1Cent=   0 FoldK=F
 IRaf=         0 NMat=   1 IRICut=       1 DoRegI=T DoRafI=F ISym2E= 0.
 FoFCou: FMM=F IPFlag=           0 FMFlag=      100000 FMFlg1=         800
         NFxFlg=           0 DoJE=F BraDBF=F KetDBF=F FulRan=T
         wScrn=  0.000000 ICntrl=  100127 IOpCl=  1 I1Cent=           0 NGrid=           0
         NMat0=    1 NMatS0=      1 NMatT0=    0 NMatD0=    1 NMtDS0=    0 NMtDT0=    0
 Symmetry not used in FoFCou.
 Leave Link  703 at Thu Jan  7 23:59:17 2021, MaxMem=    33554432 cpu:         8.8
 (Enter /apps/applications/gaussian/G09.D01/2/default/g09/l716.exe)
 Dipole        = 1.45678670D-01-7.44261259D-01-7.20787378D-02
 Polarizability= 3.67898336D+01-1.04085506D+01 3.06984012D+01
                -1.11472034D+01 1.06645152D+00 2.69541832D+01
 -------------------------------------------------------------------
 Center     Atomic                   Forces (Hartrees/Bohr)
 Number     Number              X              Y              Z
 -------------------------------------------------------------------
      1        6           0.003653415   -0.006842975    0.006963472
      2        6          -0.006593153    0.003775849    0.003063089
      3        1          -0.004348375   -0.006969654   -0.006051342
      4        1          -0.002205398   -0.000819310    0.006792606
      5        1           0.006378412   -0.001425583    0.000229149
      6        6           0.010759835   -0.000695720   -0.010807877
      7        1          -0.013773719    0.003855223    0.009836736
      8        8           0.023351232   -0.022535283   -0.022848417
      9        1          -0.017222249    0.031657453    0.012822582
 -------------------------------------------------------------------
 Cartesian Forces:  Max     0.031657453 RMS     0.012090883
 Force constants in Cartesian coordinates: 
                1             2             3             4             5 
      1  0.599458D+00
      2  0.134256D+00  0.153302D+00
      3 -0.520337D-01  0.202715D+00  0.561843D+00
      4  0.987666D-02 -0.297495D-01  0.968274D-02  0.100242D+01
      5 -0.161434D-01  0.432703D-01 -0.215802D-01 -0.180344D+00  0.770101D-01
      6 -0.812207D-03 -0.837720D-02 -0.181242D-02 -0.669137D+00  0.179269D+00
      7 -0.148917D+00 -0.107784D+00 -0.109867D+00 -0.483873D-03  0.293343D-02
      8 -0.115823D+00 -0.114760D+00 -0.134796D+00  0.173282D-02 -0.811163D-02
      9 -0.107095D+00 -0.125650D+00 -0.173393D+00 -0.714202D-03  0.445592D-02
     10 -0.909368D-01  0.932701D-02  0.110081D+00 -0.261925D-02  0.174693D-02
     11  0.632340D-02 -0.215275D-01 -0.581037D-01  0.509110D-02 -0.626646D-02
     12  0.112856D+00 -0.654699D-01 -0.327372D+00 -0.370194D-03  0.188199D-02
     13 -0.357616D+00 -0.337540D-01  0.463973D-01 -0.406031D-02  0.138485D-02
     14 -0.231634D-01 -0.149954D-01 -0.149246D-01  0.476032D-02 -0.356245D-02
     15  0.405833D-01 -0.150172D-01 -0.522495D-01 -0.224018D-02  0.150407D-02
     16 -0.103452D-01  0.283223D-01 -0.915309D-02 -0.687604D+00  0.142787D+00
     17  0.125509D-01 -0.228521D-01  0.711048D-02  0.173586D+00 -0.614511D-01
     18  0.365995D-02 -0.690707D-02  0.414428D-02  0.438996D+00 -0.115034D+00
     19  0.142561D-04 -0.228628D-03  0.339414D-03  0.433004D-02 -0.173039D-02
     20 -0.131276D-03 -0.849378D-03  0.217279D-03  0.513502D-02  0.165046D-02
     21 -0.118351D-03  0.308952D-03  0.147518D-03 -0.642732D-02  0.323869D-02
     22 -0.231781D-02 -0.301849D-02  0.677437D-02 -0.293613D+00  0.184097D-01
     23  0.156526D-02 -0.178379D-01  0.158710D-01  0.228009D-01 -0.508650D-01
     24  0.511514D-03  0.193363D-01 -0.129616D-01  0.213981D+00 -0.288970D-01
     25  0.783974D-03  0.262939D-02 -0.222081D-02 -0.282457D-01  0.309559D-01
     26  0.565627D-03 -0.375050D-02  0.349124D-02 -0.301271D-02  0.832580D-02
     27  0.244813D-02 -0.939253D-03  0.165324D-02  0.162295D-01 -0.248386D-01
                6             7             8             9            10 
      6  0.556260D+00
      7  0.378948D-04  0.151129D+00
      8 -0.179450D-02  0.115655D+00  0.118958D+00
      9  0.906541D-03  0.119592D+00  0.134164D+00  0.179887D+00
     10 -0.716086D-03  0.813805D-02 -0.242237D-02 -0.178764D-01  0.903675D-01
     11  0.364838D-02  0.719713D-02  0.635070D-03 -0.160258D-01 -0.135181D-01
     12 -0.223404D-02  0.866015D-02  0.162466D-03 -0.119076D-01 -0.118402D+00
     13  0.141902D-02 -0.948964D-02  0.301247D-02  0.515730D-02 -0.672008D-02
     14  0.151739D-02 -0.167262D-01  0.151332D-02  0.406728D-02  0.410530D-02
     15 -0.369525D-03 -0.187351D-01  0.162726D-03  0.504008D-02  0.294443D-01
     16  0.457157D+00  0.519464D-03 -0.140186D-02  0.131269D-02  0.918702D-03
     17 -0.139451D+00 -0.864806D-04  0.723025D-03  0.699720D-04  0.654729D-03
     18 -0.354408D+00 -0.388400D-03  0.165841D-02 -0.633618D-03 -0.178027D-02
     19 -0.146690D-02  0.703845D-04  0.228281D-04 -0.120725D-03  0.200511D-04
     20 -0.355257D-02  0.110674D-03 -0.256210D-04 -0.120165D-03  0.119487D-03
     21  0.431870D-02  0.583358D-04 -0.900941D-04 -0.832222D-04  0.409981D-04
     22  0.194430D+00 -0.159103D-03  0.634876D-03 -0.668624D-03  0.124961D-02
     23 -0.320001D-01 -0.316020D-03  0.129362D-02 -0.698974D-03 -0.463361D-04
     24 -0.184258D+00  0.979200D-03  0.159463D-03  0.511822D-03  0.134680D-03
     25  0.190876D-01 -0.807173D-03 -0.141053D-02  0.412771D-03 -0.417830D-03
     26  0.740801D-03 -0.983242D-03 -0.225843D-03 -0.263084D-03  0.333293D-04
     27 -0.184033D-01 -0.336979D-03  0.373512D-03 -0.328024D-03 -0.926006D-03
               11            12            13            14            15 
     11  0.259567D-01
     12  0.650259D-01  0.339337D+00
     13 -0.108015D-02 -0.279927D-02  0.374250D+00
     14  0.273201D-02 -0.797045D-03  0.322795D-01  0.145572D-01
     15  0.204650D-02  0.747713D-03 -0.487623D-01  0.832294D-02  0.503920D-01
     16 -0.246853D-02  0.772147D-03  0.106707D-02 -0.142288D-02  0.713336D-03
     17 -0.616732D-03 -0.109830D-02  0.457327D-03 -0.341847D-03  0.587955D-03
     18  0.269143D-02  0.104060D-02 -0.940916D-03  0.702950D-03 -0.492742D-03
     19  0.217504D-03 -0.201841D-03 -0.220262D-04  0.133214D-04 -0.991903D-04
     20  0.154340D-03  0.312629D-03 -0.123835D-03  0.875970D-04  0.964551D-05
     21  0.522650D-04 -0.176621D-03  0.813897D-04 -0.877041D-04 -0.274721D-04
     22 -0.175056D-02 -0.190762D-03  0.216852D-02 -0.339872D-03  0.198229D-04
     23 -0.104595D-02  0.175795D-03 -0.175754D-02 -0.143233D-04  0.411534D-03
     24  0.736728D-03  0.340789D-03  0.165782D-02 -0.852651D-03 -0.488850D-03
     25 -0.118278D-04 -0.324309D-03  0.421755D-03  0.493941D-03 -0.923971D-03
     26 -0.214062D-04 -0.193555D-03 -0.418595D-03  0.238528D-04  0.197183D-02
     27 -0.717498D-04  0.223321D-03 -0.221034D-02  0.205148D-02 -0.255174D-02
               16            17            18            19            20 
     16  0.102054D+01
     17 -0.256997D+00  0.116060D+00
     18 -0.678071D+00  0.179799D+00  0.511951D+00
     19 -0.312890D+00  0.732471D-01  0.215145D+00  0.305593D+00
     20  0.697736D-01 -0.305333D-01 -0.524590D-01 -0.728884D-01  0.237986D-01
     21  0.218517D+00 -0.560293D-01 -0.163947D+00 -0.214747D+00  0.536802D-01
     22 -0.132190D-01 -0.460391D-02  0.242923D-01  0.297909D-02 -0.874102D-03
     23  0.247430D-01  0.256287D-02 -0.132211D-01  0.142251D-02  0.485325D-02
     24  0.972364D-02  0.949285D-02  0.128979D-02  0.403294D-03  0.108458D-02
     25  0.100806D-02  0.119100D-02 -0.912356D-03 -0.949325D-04 -0.112115D-02
     26 -0.333602D-02 -0.355107D-02  0.276933D-02 -0.758070D-04  0.864079D-03
     27 -0.972053D-03 -0.481388D-03  0.105538D-02  0.748091D-03  0.827388D-03
               21            22            23            24            25 
     21  0.156742D+00
     22  0.178960D-02  0.352533D+00
     23 -0.121090D-02 -0.921778D-01  0.311774D+00
     24  0.258678D-02 -0.255057D+00  0.619340D-01  0.227618D+00
     25  0.805328D-03 -0.496212D-01  0.437660D-01  0.276663D-01  0.769731D-01
     26  0.137851D-03  0.837202D-01 -0.250720D+00 -0.629944D-01 -0.764928D-01
     27  0.439499D-03  0.286102D-01 -0.312613D-01 -0.346385D-01 -0.435906D-01
               26            27 
     26  0.249055D+00
     27  0.543400D-01  0.525502D-01
 Leave Link  716 at Thu Jan  7 23:59:17 2021, MaxMem=    33554432 cpu:         0.0
 (Enter /apps/applications/gaussian/G09.D01/2/default/g09/l103.exe)

 GradGradGradGradGradGradGradGradGradGradGradGradGradGradGradGradGradGrad
 Berny optimization.
 Search for a saddle point.
 Step number   2 out of a maximum of  100
 All quantities printed in internal units (Hartrees-Bohrs-Radians)
 Swapping is turned off.
 Second derivative matrix not updated -- analytic derivatives used.
 ITU=  0  0
     Eigenvalues ---   -0.04180  -0.00348   0.00266   0.00422   0.00556
     Eigenvalues ---    0.01611   0.01746   0.02615   0.03062   0.07074
     Eigenvalues ---    0.10774   0.10951   0.12045   0.15863   0.34512
     Eigenvalues ---    0.40573   0.52100   0.86511   0.89502   1.01133
     Eigenvalues ---    2.67653
 Eigenvectors required to have negative eigenvalues:
                          Y2        Y1        Z2        Z1        X1
   1                    0.64539  -0.55500  -0.32987   0.22571   0.17133
                          X9        X2        Y9        Z9        X5
   1                   -0.15914  -0.13624  -0.10221   0.09993   0.07306
 Eigenvalue     2 is  -3.48D-03 should be greater than     0.000000 Eigenvector:
                          X3        X4        Y5        Z5        Z3
   1                    0.42271  -0.41684   0.40948   0.39105  -0.32925
                          Y4        Z7        X7        Y7        Y9
   1                   -0.29655   0.15260   0.14363   0.13779  -0.11034
 RFO step:  Lambda0=2.304786847D-03 Lambda=-8.81354108D-03.
 Linear search not attempted -- option 19 set.
 Maximum step size (   0.300) exceeded in Quadratic search.
    -- Step size scaled by   0.354
 TrRot= -0.024184 -0.016237 -0.009475  0.650516  0.007845 -0.651685
 Variable       Old X    -DE/DX   Delta X   Delta X   Delta X     New X
                                 (Linear)    (Quad)   (Total)
    X1       -6.16765   0.00365   0.00000  -0.01241  -0.01154  -6.17919
    Y1        6.24568  -0.00684   0.00000   0.02391   0.02838   6.27406
    Z1        2.83433   0.00696   0.00000  -0.00010  -0.00094   2.83339
    X2       -7.21056  -0.00659   0.00000   0.01301   0.00752  -7.20304
[...]
 Vibration     4          0.719              1.599              1.219
 Vibration     5          0.793              1.400              0.851
 Vibration     6          0.860              1.240              0.647
 Vibration     7          0.900              1.152              0.556
 Vibration     8          0.903              1.145              0.549
 Vibration     9          0.939              1.069              0.481
                       Q            Log10(Q)             Ln(Q)
 Total Bot       0.452019D-16        -16.344843        -37.635393
 Total V=0       0.216169D+14         13.334793         30.704496
 Vib (Bot)       0.247200D-28        -28.606952        -65.869942
 Vib (Bot)    1  0.179694D+01          0.254533          0.586084
 Vib (Bot)    2  0.110102D+01          0.041796          0.096238
 Vib (Bot)    3  0.846589D+00         -0.072328         -0.166540
 Vib (Bot)    4  0.548992D+00         -0.260434         -0.599671
 Vib (Bot)    5  0.402136D+00         -0.395628         -0.910966
 Vib (Bot)    6  0.324429D+00         -0.488880         -1.125688
 Vib (Bot)    7  0.289719D+00         -0.538023         -1.238843
 Vib (Bot)    8  0.287365D+00         -0.541566         -1.247002
 Vib (Bot)    9  0.261045D+00         -0.583284         -1.343062
 Vib (V=0)       0.118218D+02          1.072684          2.469947
 Vib (V=0)    1  0.236520D+01          0.373868          0.860864
 Vib (V=0)    2  0.170923D+01          0.232802          0.536046
 Vib (V=0)    3  0.148322D+01          0.171204          0.394212
 Vib (V=0)    4  0.124256D+01          0.094317          0.217172
 Vib (V=0)    5  0.114165D+01          0.057532          0.132473
 Vib (V=0)    6  0.109603D+01          0.039823          0.091696
 Vib (V=0)    7  0.107787D+01          0.032568          0.074990
 Vib (V=0)    8  0.107670D+01          0.032093          0.073897
 Vib (V=0)    9  0.106404D+01          0.026959          0.062076
 Electronic      0.200000D+01          0.301030          0.693147
 Translational   0.169300D+08          7.228656         16.644596
 Rotational      0.540036D+05          4.732423         10.896806
 
                                                    Gaussian input prepared by AS
 E
                                                             IR Spectrum
 
     33       33    3                                   2                     11      1                                              
     55       22    0                                   1                     44      2         9    8         5555  4  3   2 1 1    
     00       73    9                                   2                     96      7         9    7         8440  3  3   3 8 1    
     52       76    5                                   3                     28      4         5    8         2755  2  9   2 2 4    
 
     XX       XX    X                                   X                     XX      X         X    X         XXXX  X  X   X X X    
     XX        X                                        X                             X         X    X         XX X           X      
     X                                                  X                             X         X              X  X           X      
     X                                                  X                             X         X              X  X           X      
     X                                                  X                             X         X              X  X           X      
     X                                                  X                             X         X              X  X           X      
     X                                                  X                             X         X              X              X      
     X                                                                                X         X              X              X      
     X                                                                                X         X              X              X      
     X                                                                                X         X              X              X      
                                                                                      X         X              X              X      
                                                                                      X                        X              X      
                                                                                      X                                              
                                                                                      X                                              
                                                                                      X                                              
                                                                                      X                                              
                                                                                      X                                              
                                                                                      X                                              
                                                                                      X                                              
                                                                                      X                                              
 
 -------------------------------------------------------------------
 Center     Atomic                   Forces (Hartrees/Bohr)
 Number     Number              X              Y              Z
 -------------------------------------------------------------------
      1        6           0.000000080   -0.000001654   -0.000002750
      2        6           0.000000053    0.000000781    0.000001556
      3        1          -0.000001249    0.000000382   -0.000000739
      4        1           0.000001388   -0.000000653   -0.000000864
      5        1          -0.000000240   -0.000001464   -0.000002410
      6        6           0.000003068    0.000001138    0.000004856
      7        1           0.000002316    0.000000568    0.000003057
      8        8          -0.000003608    0.000000920   -0.000001193
      9        1          -0.000001809   -0.000000019   -0.000001514
 -------------------------------------------------------------------
 Cartesian Forces:  Max     0.000004856 RMS     0.000001894
 Force constants in Cartesian coordinates: 
                1             2             3             4             5 
      1  0.546093D+00
      2  0.135511D+00  0.171682D+00
      3 -0.717015D-01  0.179053D+00  0.518625D+00
      4  0.567292D-02 -0.518683D-01  0.218940D-01  0.691260D+00
      5 -0.293381D-01  0.796795D-01 -0.414919D-01 -0.200668D+00  0.651999D-01
      6  0.252405D-02 -0.127635D-01 -0.428528D-02 -0.599927D+00  0.272415D+00
      7 -0.640937D-01 -0.466569D-01 -0.406520D-01 -0.554446D-03  0.356150D-02
      8 -0.542607D-01 -0.139454D+00 -0.156839D+00  0.292097D-02 -0.850133D-02
      9 -0.409281D-01 -0.140678D+00 -0.205504D+00 -0.831965D-03  0.564556D-02
     10 -0.156146D+00 -0.166987D-01  0.145920D+00 -0.173510D-02  0.234932D-02
     11 -0.233243D-01 -0.236355D-01  0.463840D-02  0.176932D-02 -0.665028D-02
     12  0.151608D+00 -0.383376D-02 -0.242652D+00 -0.325577D-03  0.201876D-02
     13 -0.319869D+00 -0.629758D-01 -0.449379D-01 -0.262617D-02  0.419261D-03
     14 -0.475264D-01 -0.298158D-01 -0.190747D-01  0.921697D-02 -0.536005D-02
     15 -0.514280D-01 -0.252240D-01 -0.594494D-01 -0.446456D-02  0.189520D-02
     16 -0.123945D-01  0.388452D-01 -0.120955D-01 -0.485998D+00  0.180003D+00
     17  0.179675D-01 -0.358096D-01  0.115980D-01  0.215931D+00 -0.943162D-01
     18  0.583571D-02 -0.149654D-01  0.975561D-02  0.388082D+00 -0.178733D+00
     19 -0.103689D-03 -0.243875D-03 -0.621637D-04  0.710537D-03 -0.306487D-02
     20  0.395952D-05 -0.456896D-03  0.114341D-03  0.777392D-02 -0.547258D-02
     21 -0.275767D-03  0.430115D-03 -0.336151D-03 -0.106275D-01  0.658805D-02
     22 -0.482296D-03 -0.947534D-03  0.446829D-02 -0.183975D+00  0.286614D-01
     23  0.533201D-03 -0.181783D-01  0.169636D-01  0.239219D-01 -0.323625D-01
     24  0.318922D-02  0.188741D-01 -0.179079D-01  0.173401D+00 -0.361277D-01
     25  0.132274D-02  0.503540D-02 -0.283306D-02 -0.227545D-01  0.180768D-01
     26  0.434317D-03 -0.401142D-02  0.503778D-02 -0.899699D-02  0.778353D-02
     27  0.117591D-02 -0.893420D-03  0.175451D-02  0.327993D-01 -0.322097D-01
                6             7             8             9            10 
      6  0.614626D+00
      7  0.521224D-03  0.609431D-01
      8 -0.469890D-02  0.523980D-01  0.142727D+00
      9  0.104785D-02  0.476257D-01  0.156122D+00  0.219929D+00
     10 -0.833365D-03  0.620302D-02 -0.488389D-03 -0.819026D-02  0.162987D+00
     11  0.277043D-02  0.122097D-01  0.393423D-02 -0.170429D-01  0.157826D-01
     12 -0.213693D-02  0.141726D-01  0.379313D-02 -0.142178D-01 -0.158645D+00
     13  0.120347D-02 -0.214660D-02  0.204758D-02  0.198435D-02 -0.134586D-01
     14  0.183796D-02 -0.194202D-01 -0.378893D-03 -0.257276D-02 -0.206108D-02
     15  0.342819D-04 -0.218338D-01 -0.177413D-02 -0.128691D-02  0.255464D-01
     16  0.418942D+00  0.245528D-03 -0.942099D-03  0.860894D-03  0.112223D-02
     17 -0.224482D+00 -0.602984D-03  0.350698D-03 -0.565359D-03  0.511817D-04
     18 -0.375969D+00 -0.564748D-03  0.248732D-02 -0.890239D-03 -0.183700D-02
     19 -0.128906D-02  0.116053D-03 -0.229981D-04 -0.671079D-04  0.153426D-03
     20 -0.722741D-02  0.119175D-04  0.406622D-04  0.199592D-04 -0.360653D-05
     21  0.549596D-02  0.779932D-04 -0.774319D-04 -0.593353D-04  0.148360D-03
     22  0.169173D+00 -0.538345D-03  0.407759D-03 -0.648290D-03  0.137274D-02
     23 -0.300634D-01 -0.166954D-03  0.224959D-02 -0.801328D-03  0.912307D-03
     24 -0.221487D+00  0.471294D-03  0.465090D-03  0.124336D-02 -0.146531D-02
     25  0.968565D-02 -0.174642D-03 -0.206012D-02  0.194748D-03 -0.499149D-03
     26  0.221159D-02 -0.133407D-02 -0.968057D-03 -0.127792D-03  0.156378D-03
     27 -0.173259D-01  0.181781D-03  0.521735D-03 -0.262033D-03 -0.644025D-03
               11            12            13            14            15 
     11  0.254669D-01
     12  0.174381D-03  0.250991D+00
     13 -0.284822D-02 -0.706108D-02  0.336314D+00
     14  0.166888D-02 -0.135080D-02  0.631827D-01  0.321695D-01
     15  0.429905D-02  0.771087D-02  0.508300D-01  0.208997D-01  0.550669D-01
     16 -0.270516D-02  0.540730D-03  0.614659D-03 -0.229545D-02  0.902534D-03
     17  0.134353D-02 -0.144807D-02  0.613998D-03  0.887586D-04  0.224825D-03
     18  0.203481D-02  0.287244D-03 -0.456215D-03  0.130535D-02 -0.997484D-03
     19  0.187406D-03 -0.190690D-04 -0.446677D-04  0.436341D-04  0.429881D-04
     20 -0.107118D-03  0.327609D-03 -0.118741D-03  0.702758D-04  0.777592D-04
     21  0.791214D-04  0.818128D-05  0.810284D-05  0.129063D-04  0.716010D-04
     22 -0.120903D-02  0.357399D-03  0.149627D-02 -0.621442D-03  0.947588D-03
     23 -0.118132D-02  0.572218D-03  0.158302D-04  0.756905D-03 -0.662435D-03
     24  0.327425D-02 -0.110654D-03 -0.206194D-03 -0.186741D-02  0.687096D-03
     25  0.137694D-03 -0.628831D-03 -0.279404D-03 -0.518753D-03 -0.543092D-03
     26 -0.839307D-03 -0.253472D-03 -0.336636D-03  0.800439D-03  0.264003D-03
     27 -0.227554D-03  0.120043D-03 -0.136453D-02  0.809750D-03 -0.183693D-02
               16            17            18            19            20 
     16  0.727387D+00
     17 -0.316280D+00  0.180886D+00
     18 -0.608021D+00  0.278649D+00  0.571076D+00
     19 -0.217098D+00  0.793984D-01  0.190469D+00  0.212464D+00
     20  0.715030D-01 -0.388802D-01 -0.695870D-01 -0.774810D-01  0.391980D-01
     21  0.197270D+00 -0.796471D-01 -0.196647D+00 -0.190085D+00  0.743027D-01
     22 -0.110064D-01 -0.910082D-03  0.260792D-01  0.296290D-02 -0.123002D-02
     23  0.303193D-01 -0.958358D-02 -0.227375D-01  0.100962D-02  0.451138D-02
     24 -0.759809D-03  0.170214D-01 -0.480559D-02  0.296318D-03  0.102673D-02
     25 -0.287275D-02  0.383166D-02  0.413932D-03  0.838997D-03 -0.459499D-03
     26  0.155235D-02 -0.407919D-02  0.154654D-02  0.173664D-03  0.109640D-02
     27  0.236118D-02 -0.135123D-02 -0.180932D-02  0.714133D-03  0.945361D-03
               21            22            23            24            25 
     21  0.189062D+00
     22  0.222692D-02  0.318039D+00
     23 -0.182857D-02 -0.229802D+00  0.360317D+00
     24  0.260586D-02 -0.189994D+00 -0.382219D-02  0.259374D+00
     25  0.125705D-02 -0.127869D+00  0.173256D+00  0.150673D-01  0.152288D+00
     26  0.140269D-03  0.205651D+00 -0.306529D+00  0.115567D-02 -0.197300D+00
     27 -0.200599D-03 -0.126100D-01  0.423797D-01 -0.195994D-01 -0.226137D-01
               26            27 
     26  0.306747D+00
     27 -0.997458D-02  0.391597D-01
 Leave Link  716 at Fri Jan  8 00:07:05 2021, MaxMem=    33554432 cpu:         0.0
 (Enter /apps/applications/gaussian/G09.D01/2/default/g09/l9999.exe)
 1\1\GINC-DC1S1B1B\Freq\UB3LYP\3-21G\C3H5O1(2)\CHMRSH\08-Jan-2021\0\\#P
  b3lyp/3-21G scf=qc opt(calcall, ts, noeigentest, cartesian,maxcycle=1
 00) NoSymm\\Gaussian input prepared by ASE\\0,2\C,-3.2576481459,3.3099
 364261,1.4992059977\C,-3.8568238146,5.3001954014,0.5519533421\H,-3.498
 4429716,2.6342468398,0.6818718074\H,-3.903387491,3.2585962921,2.365879
 1385\H,-2.2062211529,3.5053912543,1.6963523328\C,-4.7346335697,5.78402
 80972,1.2537466681\H,-5.4770843096,6.0676317185,1.95542354\O,-3.010323
 9461,5.2610611384,-0.4925538413\H,-2.4673160609,4.4308250062,-0.472831
 7168\\Version=ES64L-G09RevD.01\HF=-191.3103447\S2=0.769056\S2-1=0.\S2A
 =0.750126\RMSD=0.000e+00\RMSF=1.894e-06\ZeroPoint=0.0645256\Thermal=0.
 0707152\Dipole=0.3004209,-0.7080629,0.224272\DipoleDeriv=0.0476263,-0.
 0531811,0.0174345,-0.0429996,-0.0087437,0.0836705,0.0085019,0.0968635,
 -0.0686543,0.3795228,0.1846077,-0.4511346,0.0870166,0.0303165,-0.00828
 13,-0.3674538,-0.1324496,0.7319966,0.0431196,0.0090455,-0.0089665,-0.0
 338945,0.0081829,-0.0923142,-0.0264071,-0.0630025,-0.0248328,0.023046,
 0.0075736,0.0498835,0.0035409,0.031505,0.0263637,0.0533715,0.0211962,-
 0.0188398,-0.0858812,-0.0445726,-0.0231242,0.004129,0.0562235,-0.00373
 15,-0.0105197,-0.025959,0.0562058,-0.4045642,-0.0607971,0.0731748,0.03
 67924,-0.4080763,-0.0295942,-0.0105959,0.0946093,-0.4561227,0.2359137,
 0.0034451,0.014843,-0.0094647,0.2278181,0.0309743,0.0259513,0.0145358,
 0.2043899,-0.5847032,-0.0970351,0.3429259,-0.1664716,-0.133818,0.00048
 78,0.4024854,-0.0879677,-0.8181296,0.3459201,0.0509138,-0.0150363,0.12
 13515,0.1965919,-0.0075751,-0.0753336,0.082174,0.3939869\Polar=34.2268
 539,-13.627691,37.0465203,-9.7449154,0.4509947,29.4038373\PG=C01 [X(C3
 H5O1)]\NImag=1\\0.54609346,0.13551056,0.17168216,-0.07170154,0.1790534
 1,0.51862477,0.00567292,-0.05186834,0.02189403,0.69126022,-0.02933809,
 0.07967952,-0.04149185,-0.20066833,0.06519988,0.00252405,-0.01276352,-
 0.00428528,-0.59992682,0.27241522,0.61462562,-0.06409366,-0.04665692,-
 0.04065201,-0.00055445,0.00356150,0.00052122,0.06094309,-0.05426068,-0
 .13945417,-0.15683896,0.00292097,-0.00850133,-0.00469890,0.05239797,0.
 14272727,-0.04092806,-0.14067753,-0.20550413,-0.00083196,0.00564556,0.
 00104785,0.04762569,0.15612215,0.21992926,-0.15614555,-0.01669872,0.14
 591986,-0.00173510,0.00234932,-0.00083336,0.00620302,-0.00048839,-0.00
 819026,0.16298701,-0.02332435,-0.02363551,0.00463840,0.00176932,-0.006
 65028,0.00277043,0.01220973,0.00393423,-0.01704289,0.01578261,0.025466
 89,0.15160849,-0.00383376,-0.24265199,-0.00032558,0.00201876,-0.002136
 93,0.01417257,0.00379313,-0.01421781,-0.15864463,0.00017438,0.25099104
 ,-0.31986943,-0.06297582,-0.04493789,-0.00262617,0.00041926,0.00120347
 ,-0.00214660,0.00204758,0.00198435,-0.01345863,-0.00284822,-0.00706108
 ,0.33631397,-0.04752643,-0.02981580,-0.01907473,0.00921697,-0.00536005
 ,0.00183796,-0.01942020,-0.00037889,-0.00257276,-0.00206108,0.00166888
 ,-0.00135080,0.06318274,0.03216948,-0.05142801,-0.02522401,-0.05944944
 ,-0.00446456,0.00189520,0.00003428,-0.02183379,-0.00177413,-0.00128691
 ,0.02554637,0.00429905,0.00771087,0.05082998,0.02089975,0.05506691,-0.
 01239449,0.03884525,-0.01209552,-0.48599836,0.18000301,0.41894165,0.00
 024553,-0.00094210,0.00086089,0.00112223,-0.00270516,0.00054073,0.0006
 1466,-0.00229545,0.00090253,0.72738733,0.01796750,-0.03580956,0.011598
 03,0.21593057,-0.09431616,-0.22448196,-0.00060298,0.00035070,-0.000565
 36,0.00005118,0.00134353,-0.00144807,0.00061400,0.00008876,0.00022482,
 -0.31628022,0.18088566,0.00583571,-0.01496543,0.00975561,0.38808161,-0
 .17873350,-0.37596890,-0.00056475,0.00248732,-0.00089024,-0.00183700,0
 .00203481,0.00028724,-0.00045622,0.00130535,-0.00099748,-0.60802132,0.
 27864944,0.57107593,-0.00010369,-0.00024388,-0.00006216,0.00071054,-0.
 00306487,-0.00128906,0.00011605,-0.00002300,-0.00006711,0.00015343,0.0
 0018741,-0.00001907,-0.00004467,0.00004363,0.00004299,-0.21709773,0.07
 939838,0.19046883,0.21246418,0.00000396,-0.00045690,0.00011434,0.00777
 392,-0.00547258,-0.00722741,0.00001192,0.00004066,0.00001996,-0.000003
 61,-0.00010712,0.00032761,-0.00011874,0.00007028,0.00007776,0.07150302
 ,-0.03888017,-0.06958700,-0.07748095,0.03919804,-0.00027577,0.00043012
 ,-0.00033615,-0.01062746,0.00658805,0.00549596,0.00007799,-0.00007743,
 -0.00005934,0.00014836,0.00007912,0.00000818,0.00000810,0.00001291,0.0
 0007160,0.19726967,-0.07964712,-0.19664726,-0.19008487,0.07430266,0.18
 906175,-0.00048230,-0.00094753,0.00446829,-0.18397505,0.02866139,0.169
 17319,-0.00053835,0.00040776,-0.00064829,0.00137274,-0.00120903,0.0003
 5740,0.00149627,-0.00062144,0.00094759,-0.01100641,-0.00091008,0.02607
 919,0.00296290,-0.00123002,0.00222692,0.31803907,0.00053320,-0.0181783
 4,0.01696359,0.02392192,-0.03236254,-0.03006341,-0.00016695,0.00224959
 ,-0.00080133,0.00091231,-0.00118132,0.00057222,0.00001583,0.00075690,-
 0.00066244,0.03031929,-0.00958358,-0.02273753,0.00100962,0.00451138,-0
 .00182857,-0.22980155,0.36031738,0.00318922,0.01887415,-0.01790791,0.1
 7340148,-0.03612771,-0.22148668,0.00047129,0.00046509,0.00124336,-0.00
 146531,0.00327425,-0.00011065,-0.00020619,-0.00186741,0.00068710,-0.00
 075981,0.01702144,-0.00480559,0.00029632,0.00102673,0.00260586,-0.1899
 9428,-0.00382219,0.25937394,0.00132274,0.00503540,-0.00283306,-0.02275
 454,0.01807680,0.00968565,-0.00017464,-0.00206012,0.00019475,-0.000499
 15,0.00013769,-0.00062883,-0.00027940,-0.00051875,-0.00054309,-0.00287
 275,0.00383166,0.00041393,0.00083900,-0.00045950,0.00125705,-0.1278688
 7,0.17325634,0.01506729,0.15228761,0.00043432,-0.00401142,0.00503778,-
 0.00899699,0.00778353,0.00221159,-0.00133407,-0.00096806,-0.00012779,0
 .00015638,-0.00083931,-0.00025347,-0.00033664,0.00080044,0.00026400,0.
 00155235,-0.00407919,0.00154654,0.00017366,0.00109640,0.00014027,0.205
 65051,-0.30652947,0.00115567,-0.19729952,0.30674708,0.00117591,-0.0008
 9342,0.00175451,0.03279925,-0.03220971,-0.01732592,0.00018178,0.000521
 73,-0.00026203,-0.00064402,-0.00022755,0.00012004,-0.00136453,0.000809
 75,-0.00183693,0.00236118,-0.00135123,-0.00180932,0.00071413,0.0009453
 6,-0.00020060,-0.01261002,0.04237966,-0.01959943,-0.02261368,-0.009974
 58,0.03915967\\-0.00000008,0.00000165,0.00000275,-0.00000005,-0.000000
 78,-0.00000156,0.00000125,-0.00000038,0.00000074,-0.00000139,0.0000006
 5,0.00000086,0.00000024,0.00000146,0.00000241,-0.00000307,-0.00000114,
 -0.00000486,-0.00000232,-0.00000057,-0.00000306,0.00000361,-0.00000092
 ,0.00000119,0.00000181,0.00000002,0.00000151\\\@


 CONFIDENCE IS WHAT YOU FEEL BEFORE YOU FULLY
 COMPREHEND THE SITUATION.
 Job cpu time:       0 days  0 hours  9 minutes 45.1 seconds.
 File lengths (MBytes):  RWF=      9 Int=      0 D2E=      0 Chk=      1 Scr=      1
 Normal termination of Gaussian 09 at Fri Jan  8 00:07:05 2021.
