22
Properties=species:S:1:pos:R:3:momenta:R:3:forces:R:3 pbc="F F F"
O        0.98787785       4.63182063      -0.30719628       0.06753974      -0.20029297       1.14752207       0.10503431      -0.05185920      -0.04177995
C        0.36876109       3.83529403      -0.88303495      -0.92917520      -0.32947097       0.04317877      -0.10207091       0.00226813       0.41621362
C       -0.73188064       4.74823841      -2.32565534       0.02254791      -1.00020666       0.59027222       0.35356470      -1.20371567       1.10046742
C       -1.99254673       3.94417881      -2.34457178       0.66437248      -1.35481740       0.33534972       0.02813311      -0.11711569       0.02178770
C       -1.91740572       2.51072446      -1.77312551       0.23247385       0.18063368      -0.82994213       0.05898524      -0.09449646       0.03407729
C       -0.83658281       1.63256226      -2.37724371       1.58259654       1.67709829      -1.79405609       0.00782810      -0.04982653      -0.02289512
H       -0.01783991       2.23259335      -2.83613717      -0.55440837       0.08362364       0.05559291      -0.01399591      -0.02089164       0.10574095
C       -1.35313653       0.59705590      -3.38261498       1.48123520       1.17603705       0.73391842       0.03848826       0.01888226      -0.06609059
O       -2.52641037       0.33764184      -3.48751716      -1.36940117      -0.08644738       0.64547550      -0.03954293      -0.05847798      -0.04064766
C       -0.28558411      -0.02669241      -4.23409042       1.13086596      -0.13573860       2.12345485      -0.03066712      -0.03518082       0.00035901
H        0.37310710       2.46230245      -0.13194236      -0.22177186      -0.38101402      -0.09237577      -0.67710381      -0.48897939      -0.79547368
H       -0.74582261       5.68971203      -1.80076761      -0.12842219       0.12907381      -0.77341377      -0.00637053       0.09370813      -0.10169505
H       -0.04409264       4.66767817      -3.14808028       0.25142962      -0.27906944      -0.20240523       0.01450375      -0.04059444       0.03795327
H       -2.79038923       4.46717485      -1.77250002       0.12305798       0.26275818      -0.13224883       0.01364221       0.07173614      -0.00426715
H       -2.37241212       3.90448682      -3.38671748      -0.57139985       0.47334207      -0.03153494      -0.01157367      -0.07249368      -0.08416800
H       -1.76656445       2.54322610      -0.66971885       0.14892152       0.61813870      -0.35338969       0.00213106      -0.00549000       0.01684901
H       -2.91853888       2.03029455      -1.89716833      -0.22840372       0.04184443       0.37498097       0.07136761      -0.00869976      -0.04050910
H        0.34234130       0.71714150      -4.74857164      -0.06627695      -0.41294739       0.31295729      -0.07956290      -0.07262680       0.06966873
H        0.38781482      -0.65946430      -3.62988998       0.14100718       0.29859414       0.39236315      -0.05632760       0.06358177      -0.02218369
H       -0.72588234      -0.67353037      -5.01072866       0.20251265       0.18707839      -0.12918547       0.02092402       0.00422531       0.03426658
O       -0.16743007       1.00189953      -0.18410339       1.42995445      -1.05090510      -0.09200739       0.28509727       2.12172146      -0.43823879
O       -0.04973902       0.75569291      -1.40152621      -0.79651718       1.35640680      -0.74470994       0.01751572      -0.05567514      -0.17943480
