2
Properties=species:S:1:pos:R:3 energy=-2058.597950073063 pbc="F F F"
O        0.90431300       0.01887600       0.04592700
H        1.92208500       0.01887600       0.04592700
