 Entering Gaussian System, Link 0=g09
 Initial command:
 /apps/applications/gaussian/G09.D01/2/default/g09/l1.exe "/nobackup/chmrsh/Scratch/Gau-33349.inp" -scrdir="/nobackup/chmrsh/Scratch/"
 Entering Link 1 = /apps/applications/gaussian/G09.D01/2/default/g09/l1.exe PID=     33350.
  
 Copyright (c) 1988,1990,1992,1993,1995,1998,2003,2009,2013,
            Gaussian, Inc.  All Rights Reserved.
  
 This is part of the Gaussian(R) 09 program.  It is based on
 the Gaussian(R) 03 system (copyright 2003, Gaussian, Inc.),
 the Gaussian(R) 98 system (copyright 1998, Gaussian, Inc.),
 the Gaussian(R) 94 system (copyright 1995, Gaussian, Inc.),
 the Gaussian 92(TM) system (copyright 1992, Gaussian, Inc.),
 the Gaussian 90(TM) system (copyright 1990, Gaussian, Inc.),
 the Gaussian 88(TM) system (copyright 1988, Gaussian, Inc.),
 the Gaussian 86(TM) system (copyright 1986, Carnegie Mellon
 University), and the Gaussian 82(TM) system (copyright 1983,
 Carnegie Mellon University). Gaussian is a federally registered
 trademark of Gaussian, Inc.
  
 This software contains proprietary and confidential information,
 including trade secrets, belonging to Gaussian, Inc.
  
 This software is provided under written license and may be
 used, copied, transmitted, or stored only in accord with that
 written license.
  
 The following legend is applicable only to US Government
 contracts under FAR:
  
                    RESTRICTED RIGHTS LEGEND
  
 Use, reproduction and disclosure by the US Government is
 subject to restrictions as set forth in subparagraphs (a)
 and (c) of the Commercial Computer Software - Restricted
 Rights clause in FAR 52.227-19.
  
 Gaussian, Inc.
 340 Quinnipiac St., Bldg. 40, Wallingford CT 06492
  
  
 ---------------------------------------------------------------
 Warning -- This program may not be used in any manner that
 competes with the business of Gaussian, Inc. or will provide
 assistance to any competitor of Gaussian, Inc.  The licensee
 of this program is prohibited from giving any competitor of
 Gaussian, Inc. access to this program.  By using this program,
 the user acknowledges that Gaussian, Inc. is engaged in the
 business of creating and licensing software in the field of
 computational chemistry and represents and warrants to the
 licensee that it is not a competitor of Gaussian, Inc. and that
 it will not use this program in any manner prohibited above.
 ---------------------------------------------------------------
  

 Cite this work as:
 Gaussian 09, Revision D.01,
 M. J. Frisch, G. W. Trucks, H. B. Schlegel, G. E. Scuseria, 
 M. A. Robb, J. R. Cheeseman, G. Scalmani, V. Barone, B. Mennucci, 
 G. A. Petersson, H. Nakatsuji, M. Caricato, X. Li, H. P. Hratchian, 
 A. F. Izmaylov, J. Bloino, G. Zheng, J. L. Sonnenberg, M. Hada, 
 M. Ehara, K. Toyota, R. Fukuda, J. Hasegawa, M. Ishida, T. Nakajima, 
 Y. Honda, O. Kitao, H. Nakai, T. Vreven, J. A. Montgomery, Jr., 
 J. E. Peralta, F. Ogliaro, M. Bearpark, J. J. Heyd, E. Brothers, 
 K. N. Kudin, V. N. Staroverov, T. Keith, R. Kobayashi, J. Normand, 
 K. Raghavachari, A. Rendell, J. C. Burant, S. S. Iyengar, J. Tomasi, 
 M. Cossi, N. Rega, J. M. Millam, M. Klene, J. E. Knox, J. B. Cross, 
 V. Bakken, C. Adamo, J. Jaramillo, R. Gomperts, R. E. Stratmann, 
 O. Yazyev, A. J. Austin, R. Cammi, C. Pomelli, J. W. Ochterski, 
 R. L. Martin, K. Morokuma, V. G. Zakrzewski, G. A. Voth, 
 P. Salvador, J. J. Dannenberg, S. Dapprich, A. D. Daniels, 
 O. Farkas, J. B. Foresman, J. V. Ortiz, J. Cioslowski, 
 and D. J. Fox, Gaussian, Inc., Wallingford CT, 2013.
 
 ******************************************
 Gaussian 09:  ES64L-G09RevD.01 24-Apr-2013
                 8-Jan-2021 
 ******************************************
 ----------------------------------------------------------------------
 #P b3lyp/3-21G scf=qc opt(calcall, ts, noeigentest, cartesian,maxcycle
 =100)
 ----------------------------------------------------------------------
 1/5=1,6=100,10=4,11=1,14=-1,18=10,26=3,38=1/1,3;
 2/12=2,17=6,18=5,29=2,40=1/2;
 3/5=5,11=2,16=1,25=1,30=1,71=2,74=-5,140=1/1,2,3;
 4//1;
 5/5=2,8=3,38=5/8;
 8/6=4,10=90,11=11/1;
 11/6=1,8=1,9=11,15=111,16=1/1,2,10;
 10/6=1/2;
 6/7=2,8=2,9=2,10=2,18=1,28=1/1;
 7/7=1,10=1,25=1/1,2,3,16;
 1/5=1,6=100,10=4,11=1,14=-1,18=10,26=3/3(3);
 2/29=1/2;
 7/7=1,8=1,9=1,25=1,44=-1/16;
 99/12=1/99;
 2/29=1/2;
 3/5=5,11=2,16=1,25=1,30=1,71=2,74=-5,140=1/1,2,3;
 4/5=5,16=3,69=1/1;
 5/5=2,8=3,38=5/8;
 8/6=4,10=90,11=11/1;
 11/6=1,8=1,9=11,15=111,16=1/1,2,10;
 10/6=1/2;
 7/7=1,10=1,25=1/1,2,3,16;
 1/5=1,6=100,10=4,11=1,14=-1,18=10,26=3/3(-8);
 2/29=1/2;
 6/7=2,8=2,9=2,10=2,18=1,19=2,28=1/1;
 7/7=1,8=1,9=1,25=1,44=-1/16;
 99/12=1/99;
 Leave Link    1 at Fri Jan  8 01:07:36 2021, MaxMem=           0 cpu:         0.1
 (Enter /apps/applications/gaussian/G09.D01/2/default/g09/l101.exe)
 ------------------------------
 Gaussian input prepared by ASE
 ------------------------------
 Symbolic Z-matrix:
 Charge =  0 Multiplicity = 2
 C                    -5.15304   3.15826   4.40549 
 C                    -6.22719   2.52371   5.0731 
 H                    -5.22796   4.26263   4.45642 
 H                    -5.16037   2.86834   3.3389 
 H                    -4.19702   2.83077   4.85392 
 C                    -7.15631   2.27856   5.94967 
 H                    -7.95716   1.58871   6.08102 
 O                    -6.88577   3.22854   6.91952 
 H                    -7.35844   3.03462   7.77928 
 
 NAtoms=      9 NQM=        9 NQMF=       0 NMMI=      0 NMMIF=      0
                NMic=       0 NMicF=      0.
                    Isotopes and Nuclear Properties:
 (Nuclear quadrupole moments (NQMom) in fm**2, nuclear magnetic moments (NMagM)
  in nuclear magnetons)

  Atom         1           2           3           4           5           6           7           8           9
 IAtWgt=          12          12           1           1           1          12           1          16           1
 AtmWgt=  12.0000000  12.0000000   1.0078250   1.0078250   1.0078250  12.0000000   1.0078250  15.9949146   1.0078250
 NucSpn=           0           0           1           1           1           0           1           0           1
 AtZEff=   0.0000000   0.0000000   0.0000000   0.0000000   0.0000000   0.0000000   0.0000000   0.0000000   0.0000000
 NQMom=    0.0000000   0.0000000   0.0000000   0.0000000   0.0000000   0.0000000   0.0000000   0.0000000   0.0000000
 NMagM=    0.0000000   0.0000000   2.7928460   2.7928460   2.7928460   0.0000000   2.7928460   0.0000000   2.7928460
 AtZNuc=   6.0000000   6.0000000   1.0000000   1.0000000   1.0000000   6.0000000   1.0000000   8.0000000   1.0000000
 Leave Link  101 at Fri Jan  8 01:07:37 2021, MaxMem=    33554432 cpu:         0.1
 (Enter /apps/applications/gaussian/G09.D01/2/default/g09/l103.exe)

 GradGradGradGradGradGradGradGradGradGradGradGradGradGradGradGradGradGrad
 Berny optimization.
 Initialization pass.
 No Z-matrix variables, so optimization will use Cartesian coordinates.
 Trust Radius=3.00D-01 FncErr=1.00D-07 GrdErr=1.00D-06
 Number of steps in this run=    100 maximum allowed number of steps=    100.
 Search for a saddle point of order  1.
 GradGradGradGradGradGradGradGradGradGradGradGradGradGradGradGradGradGrad

 Leave Link  103 at Fri Jan  8 01:07:37 2021, MaxMem=    33554432 cpu:         0.0
 (Enter /apps/applications/gaussian/G09.D01/2/default/g09/l202.exe)
 ---------------------------------------------------------------------------------------------------
                            Z-MATRIX (ANGSTROMS AND DEGREES)
   CD    Cent   Atom    N1       Length/X        N2       Alpha/Y        N3        Beta/Z          J
 ---------------------------------------------------------------------------------------------------
      1      1  C        0  -5.153043          3.158263          4.405488
      2      2  C        0  -6.227191          2.523711          5.073098
      3      3  H        0  -5.227955          4.262629          4.456417
      4      4  H        0  -5.160366          2.868339          3.338896
      5      5  H        0  -4.197020          2.830773          4.853917
      6      6  C        0  -7.156311          2.278558          5.949674
      7      7  H        0  -7.957160          1.588712          6.081021
      8      8  O        0  -6.885770          3.228536          6.919522
      9      9  H        0  -7.358441          3.034624          7.779278
 ---------------------------------------------------------------------------------------------------
                         Z-Matrix orientation:                         
 ---------------------------------------------------------------------
 Center     Atomic      Atomic             Coordinates (Angstroms)
 Number     Number       Type             X           Y           Z
 ---------------------------------------------------------------------
      1          6           0       -5.153043    3.158263    4.405488
      2          6           0       -6.227191    2.523711    5.073098
      3          1           0       -5.227955    4.262629    4.456417
      4          1           0       -5.160366    2.868339    3.338896
      5          1           0       -4.197020    2.830773    4.853917
      6          6           0       -7.156311    2.278558    5.949674
      7          1           0       -7.957160    1.588712    6.081021
      8          8           0       -6.885770    3.228536    6.919522
      9          1           0       -7.358441    3.034624    7.779278
 ---------------------------------------------------------------------
                    Distance matrix (angstroms):
                    1          2          3          4          5
     1  C    0.000000
     2  C    1.414974   0.000000
     3  H    1.108075   2.098238   0.000000
     4  H    1.105319   2.065028   1.788146   0.000000
     5  H    1.105585   2.064927   1.808603   1.795755   0.000000
     6  C    2.677961   1.300673   3.144027   3.338833   3.203596
     7  H    3.624082   2.209734   4.151834   4.120528   4.145739
     8  O    3.054120   2.083215   3.143976   3.990945   3.413842
     9  H    4.032558   2.977276   4.133808   4.957437   4.312062
                    6          7          8          9
     6  C    0.000000
     7  H    1.065128   0.000000
     8  O    1.384288   2.130723   0.000000
     9  H    1.989960   2.309373   1.000100   0.000000
 Stoichiometry    C3H5O(2)
 Framework group  C1[X(C3H5O)]
 Deg. of freedom    21
 Full point group                 C1      NOp   1
 Largest Abelian subgroup         C1      NOp   1
 Largest concise Abelian subgroup C1      NOp   1
                         Standard orientation:                         
 ---------------------------------------------------------------------
 Center     Atomic      Atomic             Coordinates (Angstroms)
 Number     Number       Type             X           Y           Z
 ---------------------------------------------------------------------
      1          6           0       -1.710911   -0.216053   -0.000175
      2          6           0       -0.463801    0.451948    0.025200
      3          1           0       -1.720503   -1.048055   -0.731960
      4          1           0       -2.504188    0.497148   -0.289634
      5          1           0       -1.938626   -0.607273    1.008493
      6          6           0        0.819329    0.660947   -0.015388
      7          1           0        1.485230    1.492246   -0.019309
      8          8           0        1.314694   -0.631632   -0.025735
      9          1           0        2.292833   -0.662068    0.180467
 ---------------------------------------------------------------------
 Rotational constants (GHZ):     24.4501178      5.2805842      4.4734276
 Leave Link  202 at Fri Jan  8 01:07:37 2021, MaxMem=    33554432 cpu:         0.0
 (Enter /apps/applications/gaussian/G09.D01/2/default/g09/l301.exe)
 Standard basis: 3-21G (6D, 7F)
 Ernie: Thresh=  0.10000D-02 Tol=  0.10000D-05 Strict=F.
 There are    46 symmetry adapted cartesian basis functions of A   symmetry.
 There are    46 symmetry adapted basis functions of A   symmetry.
    46 basis functions,    75 primitive gaussians,    46 cartesian basis functions
    16 alpha electrons       15 beta electrons
       nuclear repulsion energy       110.6963864971 Hartrees.
 IExCor=  402 DFT=T Ex+Corr=B3LYP ExCW=0 ScaHFX=  0.200000
 ScaDFX=  0.800000  0.720000  1.000000  0.810000 ScalE2=  1.000000  1.000000
 IRadAn=      0 IRanWt=     -1 IRanGd=            0 ICorTp=0 IEmpDi=  4
 NAtoms=    9 NActive=    9 NUniq=    9 SFac= 1.00D+00 NAtFMM=   60 NAOKFM=F Big=F
 Integral buffers will be    131072 words long.
 Raffenetti 2 integral format.
 Two-electron integral symmetry is turned on.
 Leave Link  301 at Fri Jan  8 01:07:37 2021, MaxMem=    33554432 cpu:         0.1
 (Enter /apps/applications/gaussian/G09.D01/2/default/g09/l302.exe)
 NPDir=0 NMtPBC=     1 NCelOv=     1 NCel=       1 NClECP=     1 NCelD=      1
         NCelK=      1 NCelE2=     1 NClLst=     1 CellRange=     0.0.
 One-electron integrals computed using PRISM.
 NBasis=    46 RedAO= T EigKep=  4.79D-03  NBF=    46
 NBsUse=    46 1.00D-06 EigRej= -1.00D+00 NBFU=    46
 Precomputing XC quadrature grid using
 IXCGrd= 4 IRadAn=           0 IRanWt=          -1 IRanGd=           0 AccXCQ= 0.00D+00.
 Generated NRdTot=       0 NPtTot=           0 NUsed=           0 NTot=          32
 NSgBfM=    46    46    46    46    46 MxSgAt=     9 MxSgA2=     9.
 Leave Link  302 at Fri Jan  8 01:07:37 2021, MaxMem=    33554432 cpu:         0.1
 (Enter /apps/applications/gaussian/G09.D01/2/default/g09/l303.exe)
 DipDrv:  MaxL=1.
 Leave Link  303 at Fri Jan  8 01:07:37 2021, MaxMem=    33554432 cpu:         0.0
 (Enter /apps/applications/gaussian/G09.D01/2/default/g09/l401.exe)
 ExpMin= 1.83D-01 ExpMax= 3.22D+02 ExpMxC= 3.22D+02 IAcc=1 IRadAn=         1 AccDes= 0.00D+00
 Harris functional with IExCor=  402 and IRadAn=       1 diagonalized for initial guess.
 HarFok:  IExCor=  402 AccDes= 0.00D+00 IRadAn=         1 IDoV= 1 UseB2=F ITyADJ=14
 ICtDFT=  3500011 ScaDFX=  1.000000  1.000000  1.000000  1.000000
 FoFCou: FMM=F IPFlag=           0 FMFlag=      100000 FMFlg1=           0
         NFxFlg=           0 DoJE=T BraDBF=F KetDBF=T FulRan=T
         wScrn=  0.000000 ICntrl=     500 IOpCl=  0 I1Cent=   200000004 NGrid=           0
         NMat0=    1 NMatS0=      1 NMatT0=    0 NMatD0=    1 NMtDS0=    0 NMtDT0=    0
 Petite list used in FoFCou.
 Harris En= -191.343330639911    
 JPrj=0 DoOrth=F DoCkMO=F.
 Initial guess <Sx>= 0.0000 <Sy>= 0.0000 <Sz>= 0.5000 <S**2>= 0.7500 S= 0.5000
 Leave Link  401 at Fri Jan  8 01:07:38 2021, MaxMem=    33554432 cpu:         0.2
 (Enter /apps/applications/gaussian/G09.D01/2/default/g09/l508.exe)
 Direct SCF.
 Tight linear equation convergence will be used.
 UB3LYP wavefunction.
 Quadratic Convergence SCF Method.
 Line search only if initial step raises energy.
 Integral symmetry usage will be decided dynamically.
 ReadGW:  IGet=1 IStart=         402 Next=         402 LGW=           0.
 Keep R1 and R2 ints in memory in canonical form, NReq=2054798.
 FoFCou: FMM=F IPFlag=           0 FMFlag=           0 FMFlg1=           0
         NFxFlg=           0 DoJE=F BraDBF=F KetDBF=F FulRan=T
         wScrn=  0.000000 ICntrl=     600 IOpCl=  0 I1Cent=           0 NGrid=           0
         NMat0=    1 NMatS0=   1081 NMatT0=    0 NMatD0=    1 NMtDS0=    0 NMtDT0=    0
 Symmetry not used in FoFCou.
 Iteration   1 EE= -191.242613796842                                    Grad=4.514D-01 Max rot=    3.6888 deg.
 Gradient too large for Newton-Raphson -- use scaled steepest descent instead.
 Alpha Gap=     0.202 HL deriv= 8.41D-03
  Beta Gap=     0.166 HL deriv= 5.15D-03
     ILin= 1 X=0.000D+00 Y=-1.912426137968D+02 DE= 0.00D+00 F= -4.18D-01
     ILin= 2 X=3.000D-01 Y=-1.913259016950D+02 DE=-8.33D-02 F= -1.37D-01
     ILin= 3 X=5.000D-01 Y=-1.913343016646D+02 DE=-9.17D-02 F=  5.27D-02
     Accept linear search using points  2 and  3.
     An  expanding polynomial of degree  3 produced  0.3906
 Iteration   2 EE= -191.334398355964     Delta-E=       -0.091784559122 Grad=1.114D-01 Max rot=    1.1080 deg.
 Gradient too large for Newton-Raphson -- use scaled steepest descent instead.
 Alpha Gap=     0.231 HL deriv= 5.18D-03
  Beta Gap=     0.166 HL deriv= 3.70D-03
     ILin= 1 X=0.000D+00 Y=-1.913343983560D+02 DE= 0.00D+00 F= -2.03D-02
     ILin= 2 X=3.000D-01 Y=-1.913389744539D+02 DE=-4.58D-03 F= -1.02D-02
     ILin= 3 X=6.000D-01 Y=-1.913405445420D+02 DE=-6.15D-03 F= -2.27D-04
     ILin= 4 X=1.200D+00 Y=-1.913346862579D+02 DE=-2.88D-04 F=  1.97D-02
     An  expanding polynomial of degree  4 produced  0.6069
     Minimum is close to point  3 DX=  6.87D-03 DF= -7.87D-07 DXR=  1.13D-02 DFR=  1.28D-04 which will be used.
 Iteration   3 EE= -191.340544541952     Delta-E=       -0.006146185988 Grad=4.367D-02 Max rot=    0.4797 deg.
 Gradient too large for Newton-Raphson -- use scaled steepest descent instead.
 Alpha Gap=     0.222 HL deriv= 1.93D-03
  Beta Gap=     0.174 HL deriv= 4.90D-03
     ILin= 1 X=0.000D+00 Y=-1.913405445420D+02 DE= 0.00D+00 F= -3.11D-03
     ILin= 2 X=5.000D-01 Y=-1.913413629931D+02 DE=-8.18D-04 F= -1.65D-04
     Reject lnstep minimum 6.113D-01 FVal=-1.913413867651D+02 Lims=  0.00D+00  5.00D-01
     ILin= 3 X=9.000D-01 Y=-1.913409580991D+02 DE=-4.14D-04 F=  2.19D-03
     An  expanding polynomial of degree  3 produced  0.5281
     Minimum is close to point  2 DX=  2.81D-02 DF= -2.32D-06 DXR=  5.31D-02 DFR=  2.83D-03 which will be used.
 Iteration   4 EE= -191.341362993114     Delta-E=       -0.000818451162 Grad=2.068D-02 Max rot=    0.3046 deg.
 Gradient too large for Newton-Raphson -- use scaled steepest descent instead.
 Alpha Gap=     0.229 HL deriv= 2.42D-03
  Beta Gap=     0.169 HL deriv= 1.16D-03
     ILin= 1 X=0.000D+00 Y=-1.913413629931D+02 DE= 0.00D+00 F= -8.30D-04
     ILin= 2 X=6.000D-01 Y=-1.913416026751D+02 DE=-2.40D-04 F=  3.04D-05
     Accept linear search using points  1 and  2.
     An  expanding polynomial of degree  2 produced  0.4962
 Iteration   5 EE= -191.341598115411     Delta-E=       -0.000235122297 Grad=1.144D-02 Max rot=    0.2011 deg.
 Gradient too large for Newton-Raphson -- use scaled steepest descent instead.
 Alpha Gap=     0.226 HL deriv= 1.06D-03
  Beta Gap=     0.173 HL deriv= 2.64D-03
     ILin= 1 X=0.000D+00 Y=-1.913415981154D+02 DE= 0.00D+00 F= -2.89D-04
     ILin= 2 X=5.000D-01 Y=-1.913416908241D+02 DE=-9.27D-05 F= -8.17D-05
     ILin= 3 X=1.000D+00 Y=-1.913416799094D+02 DE=-8.18D-05 F=  1.25D-04
     An  expanding polynomial of degree  3 produced  0.6973
 Iteration   6 EE= -191.341698882847     Delta-E=       -0.000100767437 Grad=7.529D-03 Max rot=    0.1926 deg.
 QCNR:  CnvC1=3.07D-09 CnvC2=3.07D-08
 LinEq1:  Iter=  0 NonCon=     1 RMS=5.10D-04 Max=1.25D-02 NDo=     1
 AX will form     1 AO Fock derivatives at one time.
 LinEq1:  Iter=  1 NonCon=     1 RMS=6.34D-04 Max=1.64D-02 NDo=     1
 LinEq1:  Iter=  2 NonCon=     1 RMS=1.23D-04 Max=1.55D-03 NDo=     1
 LinEq1:  Iter=  3 NonCon=     1 RMS=7.68D-05 Max=8.50D-04 NDo=     1
 LinEq1:  Iter=  4 NonCon=     1 RMS=2.46D-05 Max=2.73D-04 NDo=     1
 LinEq1:  Iter=  5 NonCon=     1 RMS=7.49D-06 Max=6.21D-05 NDo=     1
 LinEq1:  Iter=  6 NonCon=     1 RMS=3.68D-06 Max=3.31D-05 NDo=     1
 LinEq1:  Iter=  7 NonCon=     1 RMS=1.05D-06 Max=9.37D-06 NDo=     1
 LinEq1:  Iter=  8 NonCon=     1 RMS=5.35D-07 Max=4.51D-06 NDo=     1
 LinEq1:  Iter=  9 NonCon=     1 RMS=2.17D-07 Max=2.38D-06 NDo=     1
 LinEq1:  Iter= 10 NonCon=     1 RMS=5.01D-08 Max=6.45D-07 NDo=     1
 LinEq1:  Iter= 11 NonCon=     1 RMS=9.77D-09 Max=9.99D-08 NDo=     1
 LinEq1:  Iter= 12 NonCon=     0 RMS=1.82D-09 Max=1.53D-08 NDo=     1
 Linear equations converged to 3.074D-09 3.074D-08 after    12 iterations.
 Angle between quadratic step and gradient=  59.54 degrees.
     ILin= 1 X=0.000D+00 Y=-1.913416988828D+02 DE= 0.00D+00 F= -2.00D-04
     ILin= 2 X=1.000D+00 Y=-1.913417987195D+02 DE=-9.98D-05 F=  6.75D-07
     Accept linear search using points  1 and  2.
     An  expanding polynomial of degree  2 produced  0.9967
     Minimum is close to point  2 DX= -3.35D-03 DF= -1.13D-09 DXR=  3.36D-03 DFR=  1.13D-05 which will be used.
 Iteration   7 EE= -191.341798719462     Delta-E=       -0.000099836614 Grad=5.154D-05 Max rot=    0.0011 deg.
 QCNR:  CnvC1=5.15D-10 CnvC2=5.15D-09
 LinEq1:  Iter=  0 NonCon=     1 RMS=2.99D-06 Max=4.17D-05 NDo=     1
 LinEq1:  Iter=  1 NonCon=     1 RMS=2.67D-06 Max=4.53D-05 NDo=     1
 LinEq1:  Iter=  2 NonCon=     1 RMS=1.18D-06 Max=2.09D-05 NDo=     1
 LinEq1:  Iter=  3 NonCon=     1 RMS=8.20D-07 Max=1.26D-05 NDo=     1
 LinEq1:  Iter=  4 NonCon=     1 RMS=4.12D-07 Max=4.80D-06 NDo=     1
 LinEq1:  Iter=  5 NonCon=     1 RMS=2.77D-07 Max=3.89D-06 NDo=     1
 LinEq1:  Iter=  6 NonCon=     1 RMS=1.25D-07 Max=1.60D-06 NDo=     1
 LinEq1:  Iter=  7 NonCon=     1 RMS=3.35D-08 Max=2.83D-07 NDo=     1
 LinEq1:  Iter=  8 NonCon=     1 RMS=1.59D-08 Max=1.49D-07 NDo=     1
 LinEq1:  Iter=  9 NonCon=     1 RMS=4.88D-09 Max=3.19D-08 NDo=     1
 LinEq1:  Iter= 10 NonCon=     1 RMS=9.91D-10 Max=6.50D-09 NDo=     1
 LinEq1:  Iter= 11 NonCon=     0 RMS=2.06D-10 Max=1.65D-09 NDo=     1
 Linear equations converged to 5.154D-10 5.154D-09 after    11 iterations.
 Angle between quadratic step and gradient=  58.77 degrees.
     ILin= 1 X=0.000D+00 Y=-1.913417987195D+02 DE= 0.00D+00 F= -8.76D-09
     ILin= 2 X=1.000D+00 Y=-1.913417987238D+02 DE=-4.38D-09
 Iteration   8 EE= -191.341798723841     Delta-E=       -0.000000004379 Grad=5.597D-09 Max rot=    0.0000 deg.
 Rotation gradient small -- convergence achieved.
 SCF Done:  E(UB3LYP) =  -191.341798724     a.u. after    8 cycles
            Convg  =    0.5597D-08                    39 Fock formations.
              S**2 =  0.7616                  -V/T =  2.0071
 <Sx>= 0.0000 <Sy>= 0.0000 <Sz>= 0.5000 <S**2>= 0.7616 S= 0.5058
 <L.S>= 0.000000000000E+00
 Annihilation of the first spin contaminant:
 S**2 before annihilation     0.7616,   after     0.7501
 Leave Link  508 at Fri Jan  8 01:08:05 2021, MaxMem=    33554432 cpu:        26.5
 (Enter /apps/applications/gaussian/G09.D01/2/default/g09/l801.exe)
 DoSCS=F DFT=T ScalE2(SS,OS)=  1.000000  1.000000
 Range of M.O.s used for correlation:     1    46
 NBasis=    46 NAE=    16 NBE=    15 NFC=     0 NFV=     0
 NROrb=     46 NOA=    16 NOB=    15 NVA=    30 NVB=    31
 Leave Link  801 at Fri Jan  8 01:08:05 2021, MaxMem=    33554432 cpu:         0.0
 (Enter /apps/applications/gaussian/G09.D01/2/default/g09/l1101.exe)
 Using compressed storage, NAtomX=     9.
 Will process     10 centers per pass.
 Leave Link 1101 at Fri Jan  8 01:08:05 2021, MaxMem=    33554432 cpu:         0.1
 (Enter /apps/applications/gaussian/G09.D01/2/default/g09/l1102.exe)
 Symmetrizing basis deriv contribution to polar:
 IMax=3 JMax=2 DiffMx= 0.00D+00
 Leave Link 1102 at Fri Jan  8 01:08:05 2021, MaxMem=    33554432 cpu:         0.0
 (Enter /apps/applications/gaussian/G09.D01/2/default/g09/l1110.exe)
 Forming Gx(P) for the SCF density, NAtomX=     9.
 Integral derivatives from FoFJK, PRISM(SPDF).
 Do as many integral derivatives as possible in FoFJK.
 G2DrvN: MDV=      33554256.
 G2DrvN: will do    10 centers at a time, making    1 passes.
 Calling FoFCou, ICntrl=  3107 FMM=F I1Cent=   0 AccDes= 0.00D+00.
 FoFJK:  IHMeth= 1 ICntrl=    3107 DoSepK=F KAlg= 0 I1Cent=   0 FoldK=F
 IRaf=         0 NMat=   1 IRICut=       1 DoRegI=T DoRafI=F ISym2E= 0.
 FoFCou: FMM=F IPFlag=           0 FMFlag=      100000 FMFlg1=           0
         NFxFlg=           0 DoJE=F BraDBF=F KetDBF=F FulRan=T
         wScrn=  0.000000 ICntrl=    3107 IOpCl=  1 I1Cent=           0 NGrid=           0
         NMat0=    1 NMatS0=      1 NMatT0=    0 NMatD0=    1 NMtDS0=    0 NMtDT0=    0
 Symmetry not used in FoFCou.
 End of G2Drv F.D. properties file   721 does not exist.
 End of G2Drv F.D. properties file   722 does not exist.
 End of G2Drv F.D. properties file   788 does not exist.
 Leave Link 1110 at Fri Jan  8 01:08:15 2021, MaxMem=    33554432 cpu:        10.0
 (Enter /apps/applications/gaussian/G09.D01/2/default/g09/l1002.exe)
 Minotr:  UHF open shell wavefunction.
          IDoAtm=111111111
          Direct CPHF calculation.
          Differentiating once with respect to electric field.
                with respect to dipole field.
          Differentiating once with respect to nuclear coordinates.
          Requested convergence is 1.0D-08 RMS, and 1.0D-07 maximum.
          Secondary convergence is 1.0D-12 RMS, and 1.0D-12 maximum.
          NewPWx=T KeepS1=F KeepF1=F KeepIn=T MapXYZ=F SortEE=F KeepMc=T.
          MDV=      33554246 using IRadAn=       2.
 Generate precomputed XC quadrature information.
 Keep R1 and R2 ints in memory in canonical form, NReq=2035813.
 FoFCou: FMM=F IPFlag=           0 FMFlag=           0 FMFlg1=           0
         NFxFlg=           0 DoJE=F BraDBF=F KetDBF=F FulRan=T
         wScrn=  0.000000 ICntrl=     600 IOpCl=  0 I1Cent=           0 NGrid=           0
         NMat0=    1 NMatS0=   1081 NMatT0=    0 NMatD0=    1 NMtDS0=    0 NMtDT0=    0
 Symmetry not used in FoFCou.
          Solving linear equations simultaneously, MaxMat=       0.
          There are    30 degrees of freedom in the 1st order CPHF.  IDoFFX=6 NUNeed=     3.
     27 vectors produced by pass  0 Test12= 3.15D-15 3.33D-09 XBig12= 1.16D+02 5.70D+00.
 AX will form    27 AO Fock derivatives at one time.
     27 vectors produced by pass  1 Test12= 3.15D-15 3.33D-09 XBig12= 1.84D+01 8.74D-01.
     27 vectors produced by pass  2 Test12= 3.15D-15 3.33D-09 XBig12= 1.62D-01 8.72D-02.
     27 vectors produced by pass  3 Test12= 3.15D-15 3.33D-09 XBig12= 5.86D-04 3.62D-03.
     27 vectors produced by pass  4 Test12= 3.15D-15 3.33D-09 XBig12= 2.02D-06 2.46D-04.
     27 vectors produced by pass  5 Test12= 3.15D-15 3.33D-09 XBig12= 4.64D-09 9.70D-06.
      8 vectors produced by pass  6 Test12= 3.15D-15 3.33D-09 XBig12= 8.90D-12 6.04D-07.
      2 vectors produced by pass  7 Test12= 3.15D-15 3.33D-09 XBig12= 1.52D-14 1.52D-08.
 InvSVY:  IOpt=1 It=  1 EMax= 3.13D-15
 Solved reduced A of dimension   172 with    30 vectors.
 FullF1:  Do perturbations    1 to     3.
 Isotropic polarizability for W=    0.000000       32.88 Bohr**3.
 End of Minotr F.D. properties file   721 does not exist.
 End of Minotr F.D. properties file   722 does not exist.
 End of Minotr F.D. properties file   788 does not exist.
 Leave Link 1002 at Fri Jan  8 01:08:25 2021, MaxMem=    33554432 cpu:         9.4
 (Enter /apps/applications/gaussian/G09.D01/2/default/g09/l601.exe)
 Copying SCF densities to generalized density rwf, IOpCl= 1 IROHF=0.

 **********************************************************************

            Population analysis using the SCF density.

 **********************************************************************

 Orbital symmetries:
 Alpha Orbitals:
       Occupied  (A) (A) (A) (A) (A) (A) (A) (A) (A) (A) (A) (A)
                 (A) (A) (A) (A)
       Virtual   (A) (A) (A) (A) (A) (A) (A) (A) (A) (A) (A) (A)
                 (A) (A) (A) (A) (A) (A) (A) (A) (A) (A) (A) (A)
                 (A) (A) (A) (A) (A) (A)
 Beta  Orbitals:
       Occupied  (A) (A) (A) (A) (A) (A) (A) (A) (A) (A) (A) (A)
                 (A) (A) (A)
       Virtual   (A) (A) (A) (A) (A) (A) (A) (A) (A) (A) (A) (A)
                 (A) (A) (A) (A) (A) (A) (A) (A) (A) (A) (A) (A)
                 (A) (A) (A) (A) (A) (A) (A)
 The electronic state is 2-A.
 Alpha  occ. eigenvalues --  -19.03032 -10.16389 -10.12750 -10.10999  -1.02987
 Alpha  occ. eigenvalues --   -0.77940  -0.69992  -0.54505  -0.51484  -0.44039
 Alpha  occ. eigenvalues --   -0.42630  -0.41743  -0.35470  -0.32627  -0.19962
 Alpha  occ. eigenvalues --   -0.17269
 Alpha virt. eigenvalues --    0.05063   0.10250   0.14613   0.16987   0.18888
 Alpha virt. eigenvalues --    0.20732   0.23887   0.32705   0.47046   0.69007
 Alpha virt. eigenvalues --    0.72498   0.75104   0.78029   0.78838   0.82670
 Alpha virt. eigenvalues --    0.88622   0.91475   0.98144   1.00058   1.03838
 Alpha virt. eigenvalues --    1.04194   1.06108   1.23724   1.34828   1.48566
 Alpha virt. eigenvalues --    1.55880   1.69376   1.86539   2.08910   2.95663
  Beta  occ. eigenvalues --  -19.02813 -10.16588 -10.12858 -10.09568  -1.02426
  Beta  occ. eigenvalues --   -0.75987  -0.69513  -0.53818  -0.49584  -0.43209
  Beta  occ. eigenvalues --   -0.42149  -0.40511  -0.35499  -0.32374  -0.18942
  Beta virt. eigenvalues --   -0.02870   0.05920   0.11405   0.15017   0.17240
  Beta virt. eigenvalues --    0.19664   0.21099   0.25429   0.33716   0.47856
  Beta virt. eigenvalues --    0.69432   0.72819   0.77055   0.78857   0.81308
  Beta virt. eigenvalues --    0.83085   0.89925   0.93386   0.99038   1.01034
  Beta virt. eigenvalues --    1.04228   1.04761   1.07740   1.24923   1.35818
  Beta virt. eigenvalues --    1.48639   1.56704   1.69587   1.86886   2.09650
  Beta virt. eigenvalues --    2.96053
          Condensed to atoms (all electrons):
               1          2          3          4          5          6
     1  C    5.376935   0.302301   0.357292   0.360307   0.361289  -0.076057
     2  C    0.302301   5.388606  -0.055989  -0.061983  -0.055029   0.544407
     3  H    0.357292  -0.055989   0.536268  -0.032201  -0.023268  -0.002074
     4  H    0.360307  -0.061983  -0.032201   0.543928  -0.028277   0.002552
     5  H    0.361289  -0.055029  -0.023268  -0.028277   0.525131  -0.000837
     6  C   -0.076057   0.544407  -0.002074   0.002552  -0.000837   5.028846
     7  H    0.000533  -0.066078  -0.000093   0.000112  -0.000043   0.355701
     8  O   -0.005026  -0.156327   0.001227  -0.000010   0.000491   0.267355
     9  H    0.000196   0.019837  -0.000119   0.000005   0.000001  -0.039658
               7          8          9
     1  C    0.000533  -0.005026   0.000196
     2  C   -0.066078  -0.156327   0.019837
     3  H   -0.000093   0.001227  -0.000119
     4  H    0.000112  -0.000010   0.000005
     5  H   -0.000043   0.000491   0.000001
     6  C    0.355701   0.267355  -0.039658
     7  H    0.560413  -0.041130  -0.004405
     8  O   -0.041130   8.268594   0.221349
     9  H   -0.004405   0.221349   0.478577
          Atomic-Atomic Spin Densities.
               1          2          3          4          5          6
     1  C   -0.099923  -0.043953  -0.001158   0.027888   0.001601   0.001599
     2  C   -0.043953   1.201398  -0.016649  -0.037265  -0.006487   0.020455
     3  H   -0.001158  -0.016649   0.077949  -0.017054   0.004594  -0.000134
     4  H    0.027888  -0.037265  -0.017054   0.098858  -0.008596  -0.000096
     5  H    0.001601  -0.006487   0.004594  -0.008596   0.024050   0.000101
     6  C    0.001599   0.020455  -0.000134  -0.000096   0.000101  -0.188530
     7  H    0.000414  -0.005714  -0.000089   0.000103  -0.000043  -0.003257
     8  O   -0.000660  -0.072058   0.000864  -0.000099   0.000246  -0.000039
     9  H    0.000063   0.009051  -0.000112   0.000010  -0.000032   0.003379
               7          8          9
     1  C    0.000414  -0.000660   0.000063
     2  C   -0.005714  -0.072058   0.009051
     3  H   -0.000089   0.000864  -0.000112
     4  H    0.000103  -0.000099   0.000010
     5  H   -0.000043   0.000246  -0.000032
     6  C   -0.003257  -0.000039   0.003379
     7  H    0.042820  -0.009934   0.004916
     8  O   -0.009934   0.142869  -0.032327
     9  H    0.004916  -0.032327   0.061443
 Mulliken charges and spin densities:
               1          2
     1  C   -0.677771  -0.114128
     2  C    0.140255   1.048780
     3  H    0.218957   0.048211
     4  H    0.215565   0.063750
     5  H    0.220542   0.015436
     6  C   -0.080235  -0.166521
     7  H    0.194990   0.029215
     8  O   -0.556523   0.028864
     9  H    0.324219   0.046393
 Sum of Mulliken charges =   0.00000   1.00000
 Mulliken charges and spin densities with hydrogens summed into heavy atoms:
               1          2
     1  C   -0.022706   0.013269
     2  C    0.140255   1.048780
     6  C    0.114755  -0.137305
     8  O   -0.232304   0.075257
 APT charges:
               1
     1  C    0.145918
     2  C   -0.272397
     3  H   -0.013173
     4  H   -0.004570
     5  H   -0.010720
     6  C    0.393427
     7  H    0.028746
     8  O   -0.426560
     9  H    0.159328
 Sum of APT charges =   0.00000
 APT charges with hydrogens summed into heavy atoms:
               1
     1  C    0.117455
     2  C   -0.272397
     6  C    0.422173
     8  O   -0.267232
 Electronic spatial extent (au):  <R**2>=            301.2993
 Charge=              0.0000 electrons
 Dipole moment (field-independent basis, Debye):
    X=              0.9771    Y=              0.5199    Z=              0.3315  Tot=              1.1554
 Quadrupole moment (field-independent basis, Debye-Ang):
   XX=            -16.4070   YY=            -24.6518   ZZ=            -25.3831
   XY=              1.4299   XZ=              0.9022   YZ=             -0.3755
 Traceless Quadrupole moment (field-independent basis, Debye-Ang):
   XX=              5.7403   YY=             -2.5045   ZZ=             -3.2358
   XY=              1.4299   XZ=              0.9022   YZ=             -0.3755
 Octapole moment (field-independent basis, Debye-Ang**2):
  XXX=             21.4908  YYY=             -2.7653  ZZZ=              0.5526  XYY=              3.9265
  XXY=             -2.0440  XXZ=              1.7563  XZZ=              1.3129  YZZ=             -2.8030
  YYZ=             -0.3136  XYZ=             -0.3943
 Hexadecapole moment (field-independent basis, Debye-Ang**3):
 XXXX=           -229.4934 YYYY=            -73.0477 ZZZZ=            -30.3135 XXXY=            -12.7637
 XXXZ=              5.2776 YYYX=             -0.2648 YYYZ=              0.1571 ZZZX=             -0.7425
 ZZZY=             -0.3913 XXYY=            -53.0808 XXZZ=            -50.6608 YYZZ=            -17.8750
 XXYZ=             -2.1721 YYXZ=              1.1936 ZZXY=             -0.2519
 N-N= 1.106963864971D+02 E-N=-6.681899109638D+02  KE= 1.899991437319D+02
  Exact polarizability:  54.069   1.956  27.204   0.535  -0.240  17.376
 Approx polarizability:  77.738   1.054  36.615  -0.452  -0.040  21.691
                          Isotropic Fermi Contact Couplings
        Atom                 a.u.       MegaHertz       Gauss      10(-4) cm-1
     1  C(13)             -0.02923     -32.86053     -11.72545     -10.96109
     2  C(13)              0.12925     145.30711      51.84919      48.46924
     3  H(1)               0.01773      79.23769      28.27398      26.43085
     4  H(1)               0.02884     128.90165      45.99531      42.99696
     5  H(1)               0.00563      25.15908       8.97738       8.39217
     6  C(13)             -0.02861     -32.16720     -11.47806     -10.72982
     7  H(1)               0.00900      40.21553      14.34990      13.41446
     8  O(17)              0.25001    -151.55670     -54.07920     -50.55387
     9  H(1)               0.01314      58.74483      20.96162      19.59517
 --------------------------------------------------------
       Center         ----  Spin Dipole Couplings  ----
                      3XX-RR        3YY-RR        3ZZ-RR
 --------------------------------------------------------
     1   Atom        0.011208      0.008616     -0.019824
     2   Atom       -0.317557      0.706849     -0.389292
     3   Atom        0.002748      0.003865     -0.006613
     4   Atom        0.022062     -0.012333     -0.009729
     5   Atom        0.006162      0.000141     -0.006303
     6   Atom        0.090742      0.034302     -0.125045
     7   Atom        0.015154     -0.007087     -0.008067
     8   Atom        0.006173      0.110381     -0.116554
     9   Atom        0.007678     -0.002000     -0.005679
 --------------------------------------------------------
                        XY            XZ            YZ
 --------------------------------------------------------
     1   Atom        0.018910      0.001296     -0.001974
     2   Atom       -0.537087      0.022179     -0.049248
     3   Atom        0.012024      0.006088      0.004448
     4   Atom        0.004843      0.004394      0.001751
     5   Atom        0.010932     -0.009271     -0.005872
     6   Atom        0.033029     -0.005906     -0.005538
     7   Atom       -0.000640     -0.000601     -0.000780
     8   Atom       -0.124519     -0.038833      0.079242
     9   Atom       -0.002546      0.000651      0.001227
 --------------------------------------------------------


 ---------------------------------------------------------------------------------
              Anisotropic Spin Dipole Couplings in Principal Axis System
 ---------------------------------------------------------------------------------

       Atom             a.u.   MegaHertz   Gauss  10(-4) cm-1        Axes

              Baa    -0.0203    -2.725    -0.972    -0.909 -0.1323  0.1533  0.9793
     1 C(13)  Bbb    -0.0086    -1.149    -0.410    -0.383 -0.6700  0.7143 -0.2023
              Bcc     0.0289     3.874     1.382     1.292  0.7305  0.6829 -0.0082
 
              Baa    -0.5475   -73.473   -26.217   -24.508  0.9194  0.3934 -0.0064
     2 C(13)  Bbb    -0.3915   -52.533   -18.745   -17.523 -0.0101  0.0399  0.9992
              Bcc     0.9390   126.006    44.962    42.031 -0.3933  0.9185 -0.0406
 
              Baa    -0.0101    -5.382    -1.920    -1.795 -0.6369  0.3261  0.6986
     3 H(1)   Bbb    -0.0075    -4.021    -1.435    -1.341 -0.3801  0.6555 -0.6526
              Bcc     0.0176     9.403     3.355     3.136  0.6707  0.6811  0.2935
 
              Baa    -0.0134    -7.158    -2.554    -2.388 -0.0853  0.9356 -0.3427
     4 H(1)   Bbb    -0.0100    -5.310    -1.895    -1.771 -0.1766  0.3244  0.9293
              Bcc     0.0234    12.468     4.449     4.159  0.9806  0.1398  0.1376
 
              Baa    -0.0112    -5.998    -2.140    -2.001  0.4654  0.0096  0.8850
     5 H(1)   Bbb    -0.0079    -4.239    -1.512    -1.414 -0.4869  0.8378  0.2470
              Bcc     0.0192    10.237     3.653     3.415  0.7391  0.5459 -0.3946
 
              Baa    -0.1253   -16.820    -6.002    -5.611  0.0227  0.0300  0.9993
     6 C(13)  Bbb     0.0191     2.566     0.916     0.856 -0.4199  0.9074 -0.0177
              Bcc     0.1062    14.254     5.086     4.755  0.9073  0.4192 -0.0332
 
              Baa    -0.0085    -4.550    -1.624    -1.518  0.0353  0.4878  0.8722
     7 H(1)   Bbb    -0.0067    -3.553    -1.268    -1.185  0.0121  0.8725 -0.4885
              Bcc     0.0152     8.103     2.891     2.703  0.9993 -0.0278 -0.0249
 
              Baa    -0.1415    10.238     3.653     3.415 -0.0038 -0.3018  0.9534
     8 O(17)  Bbb    -0.0748     5.412     1.931     1.805  0.8496  0.5019  0.1623
              Bcc     0.2163   -15.650    -5.584    -5.220 -0.5274  0.8106  0.2545
 
              Baa    -0.0062    -3.305    -1.179    -1.103 -0.1058 -0.3377  0.9353
     9 H(1)   Bbb    -0.0021    -1.131    -0.404    -0.377  0.2132  0.9110  0.3531
              Bcc     0.0083     4.437     1.583     1.480  0.9713 -0.2368  0.0244
 

 ---------------------------------------------------------------------------------

 No NMR shielding tensors so no spin-rotation constants.
 Leave Link  601 at Fri Jan  8 01:08:26 2021, MaxMem=    33554432 cpu:         0.1
 (Enter /apps/applications/gaussian/G09.D01/2/default/g09/l701.exe)
 Compute integral second derivatives.
 ... and contract with generalized density number  0.
 Leave Link  701 at Fri Jan  8 01:08:26 2021, MaxMem=    33554432 cpu:         0.1
 (Enter /apps/applications/gaussian/G09.D01/2/default/g09/l702.exe)
 L702 exits ... SP integral derivatives will be done elsewhere.
 Leave Link  702 at Fri Jan  8 01:08:26 2021, MaxMem=    33554432 cpu:         0.0
 (Enter /apps/applications/gaussian/G09.D01/2/default/g09/l703.exe)
 Compute integral second derivatives, UseDBF=F ICtDFT=           0.
 Integral derivatives from FoFJK, PRISM(SPDF).
 Calling FoFJK, ICntrl=    100127 FMM=F ISym2X=0 I1Cent= 0 IOpClX= 1 NMat=1 NMatS=1 NMatT=0.
 FoFJK:  IHMeth= 1 ICntrl=  100127 DoSepK=F KAlg= 0 I1Cent=   0 FoldK=F
 IRaf=         0 NMat=   1 IRICut=       1 DoRegI=T DoRafI=F ISym2E= 0.
 FoFCou: FMM=F IPFlag=           0 FMFlag=      100000 FMFlg1=         800
         NFxFlg=           0 DoJE=F BraDBF=F KetDBF=F FulRan=T
         wScrn=  0.000000 ICntrl=  100127 IOpCl=  1 I1Cent=           0 NGrid=           0
         NMat0=    1 NMatS0=      1 NMatT0=    0 NMatD0=    1 NMtDS0=    0 NMtDT0=    0
 Symmetry not used in FoFCou.
 Leave Link  703 at Fri Jan  8 01:08:34 2021, MaxMem=    33554432 cpu:         8.6
 (Enter /apps/applications/gaussian/G09.D01/2/default/g09/l716.exe)
 Dipole        = 3.84439450D-01 2.04541706D-01 1.30413768D-01
 Polarizability= 5.40694446D+01 1.95584351D+00 2.72039002D+01
                 5.35060608D-01-2.40483426D-01 1.73761134D+01
 ***** Axes restored to original set *****
 -------------------------------------------------------------------
 Center     Atomic                   Forces (Hartrees/Bohr)
 Number     Number              X              Y              Z
 -------------------------------------------------------------------
      1        6           0.016546265    0.010209832   -0.006107630
      2        6          -0.032791832   -0.057653947   -0.041313699
      3        1           0.003394250   -0.003277370   -0.000300667
      4        1           0.005503666    0.003179265    0.000300930
      5        1           0.000677403    0.005179197   -0.005365645
      6        6           0.038632652    0.021693044   -0.012689204
      7        1          -0.007338713   -0.010233442   -0.007161861
      8        8          -0.024817396    0.030314653    0.071462624
      9        1           0.000193705    0.000588768    0.001175151
 -------------------------------------------------------------------
 Cartesian Forces:  Max     0.071462624 RMS     0.024050758
 Force constants in Cartesian coordinates: 
                1             2             3             4             5 
      1  0.519102D+00
      2  0.104094D-01  0.492104D+00
      3 -0.897503D-02 -0.191835D-01  0.487989D+00
      4 -0.207615D+00 -0.956494D-01  0.988015D-01  0.603179D+00
      5 -0.859868D-01 -0.852520D-01  0.684880D-01  0.205376D+00  0.148480D+00
      6  0.110299D+00  0.804508D-01 -0.974492D-01 -0.475765D+00 -0.154305D+00
      7 -0.495543D-01  0.170708D-01 -0.884115D-03 -0.464170D-02 -0.304779D-01
      8  0.247008D-01 -0.271144D+00 -0.165111D-01 -0.129283D-01 -0.177627D-01
      9 -0.105369D-02 -0.123350D-01 -0.454144D-01  0.320891D-02  0.207994D-01
     10 -0.436497D-01  0.145176D-02 -0.424554D-02 -0.980635D-02 -0.141036D-02
     11 -0.117019D-02 -0.615273D-01 -0.604266D-01 -0.270803D-02  0.514329D-03
     12 -0.124729D-01 -0.673326D-01 -0.257655D+00  0.173642D-01  0.103766D-01
     13 -0.218031D+00  0.636718D-01 -0.865876D-01 -0.363398D-01 -0.191878D-03
     14  0.603805D-01 -0.703974D-01  0.300239D-01 -0.168846D-01  0.431789D-02
     15 -0.839422D-01  0.301606D-01 -0.871426D-01  0.206043D-01 -0.622763D-02
     16 -0.485806D-02  0.626883D-02  0.184271D-02 -0.348253D+00 -0.955865D-01
     17 -0.460302D-02 -0.549737D-02 -0.327789D-02 -0.890866D-01 -0.534889D-01
     18 -0.112637D-02 -0.101350D-01 -0.595044D-02  0.286337D+00  0.113449D+00
     19  0.296399D-02 -0.372596D-02  0.587034D-05 -0.972161D-02 -0.476720D-02
     20 -0.198020D-02  0.253420D-02 -0.215960D-02  0.359317D-02  0.190713D-02
     21  0.211507D-02 -0.206835D-03  0.263359D-02  0.152343D-01  0.108408D-01
     22  0.920631D-03  0.225588D-02  0.349737D-03  0.119761D-01  0.103687D-01
     23 -0.185658D-02 -0.137599D-02  0.349771D-02  0.916900D-02  0.182207D-02
     24 -0.386984D-02 -0.125293D-02  0.210087D-02  0.343870D-01 -0.505226D-01
     25  0.721595D-03 -0.175319D-02 -0.307489D-03  0.122244D-02  0.267629D-02
     26  0.106067D-03  0.556104D-03 -0.450927D-03 -0.880843D-03 -0.537622D-03
     27 -0.973851D-03 -0.165534D-03  0.887713D-03 -0.172497D-03 -0.128983D-01
                6             7             8             9            10 
      6  0.486418D+00
      7  0.527285D-02  0.537140D-01
      8  0.815287D-02 -0.162756D-01  0.307357D+00
      9 -0.325484D-02 -0.416840D-02  0.122443D-01  0.503511D-01
     10  0.299714D-01 -0.182592D-03  0.181810D-02  0.266751D-02  0.535399D-01
     11  0.185265D-01 -0.170797D-04 -0.104540D-01 -0.341774D-01  0.520474D-02
     12 -0.175775D-01 -0.117828D-02 -0.181370D-02 -0.297243D-02 -0.137983D-02
     13  0.345068D-03 -0.114276D-02  0.975597D-03 -0.591670D-03  0.155322D-03
     14 -0.478889D-02  0.291579D-01 -0.840301D-02  0.137205D-01 -0.819733D-02
     15  0.748249D-02  0.294850D-02 -0.933982D-03 -0.455732D-03 -0.291747D-01
     16  0.282042D+00  0.276346D-02  0.216811D-02  0.885792D-03  0.691978D-03
     17  0.107893D+00 -0.156718D-02 -0.132373D-02  0.223923D-02  0.358642D-03
     18 -0.269944D+00 -0.365606D-02 -0.408207D-02  0.224510D-02  0.105332D-02
     19  0.597884D-02 -0.119293D-02 -0.962138D-03  0.750728D-03  0.489562D-04
     20 -0.177350D-02  0.546687D-03  0.561073D-03 -0.620728D-03 -0.101417D-03
     21 -0.552359D-02  0.268342D-04  0.770412D-04  0.263580D-03  0.157965D-03
     22  0.380605D-01  0.589104D-03  0.399216D-03 -0.148668D-02 -0.439454D-03
     23 -0.530707D-01  0.122599D-02  0.135047D-02 -0.146786D-02  0.666184D-03
     24 -0.844919D-01  0.126563D-02  0.217777D-02 -0.111652D-02  0.641164D-03
     25  0.379520D-02 -0.352282D-03  0.104227D-03 -0.212486D-03 -0.357989D-03
     26 -0.108423D-02  0.336370D-03 -0.181202D-03 -0.402537D-03  0.209673D-03
     27 -0.156588D-01  0.373040D-03  0.688842D-03  0.354168D-03  0.308639D-03
               11            12            13            14            15 
     11  0.692606D-01
     12  0.654460D-01  0.294171D+00
     13  0.578285D-04 -0.958904D-03  0.253811D+00
     14  0.129627D-02 -0.397724D-02 -0.644912D-01  0.730292D-01
     15  0.101859D-01 -0.139069D-01  0.898341D-01 -0.350326D-01  0.943506D-01
     16 -0.158223D-02 -0.156239D-02  0.447939D-03 -0.355274D-03  0.157219D-02
     17  0.403622D-03 -0.142353D-02 -0.182498D-02 -0.526632D-04  0.248705D-02
     18  0.220018D-04 -0.681054D-03 -0.477802D-02 -0.122765D-02  0.210316D-03
     19 -0.220942D-03 -0.243104D-04  0.625596D-03  0.195547D-03 -0.627649D-03
     20  0.282681D-03  0.426824D-04 -0.837377D-03 -0.347091D-03  0.550574D-03
     21 -0.104943D-03 -0.133926D-03  0.763314D-03  0.257010D-03 -0.396988D-03
     22  0.290130D-03  0.213440D-03  0.252458D-03 -0.104229D-03 -0.111227D-02
     23  0.302833D-03 -0.112608D-02  0.282919D-02  0.796000D-03 -0.117296D-02
     24  0.176508D-03 -0.878940D-03  0.210834D-02  0.897485D-03 -0.339443D-03
     25  0.145780D-03  0.000000D+00  0.220725D-03  0.298652D-03 -0.102395D-03
     26 -0.790979D-04 -0.192139D-03 -0.189006D-03 -0.239222D-03 -0.169681D-04
     27  0.352107D-03 -0.365533D-03 -0.134617D-03  0.127475D-03  0.198208D-03
               16            17            18            19            20 
     16  0.628308D+00
     17  0.299337D+00  0.390631D+00
     18 -0.314502D+00  0.540758D-02  0.540342D+00
     19 -0.228673D+00 -0.171550D+00  0.338512D-01  0.231706D+00
     20 -0.167178D+00 -0.176385D+00  0.198614D-01  0.185816D+00  0.183071D+00
     21  0.425643D-01  0.269712D-01 -0.474402D-01 -0.404478D-01 -0.137028D-01
     22 -0.504845D-01 -0.297532D-01  0.192723D-01  0.235201D-02 -0.193102D-01
     23 -0.603806D-01 -0.150104D+00 -0.851679D-01 -0.402073D-02 -0.138887D-01
     24 -0.352356D-01 -0.157627D+00 -0.194388D+00 -0.213231D-03 -0.214386D-02
     25  0.580784D-04 -0.131091D-02 -0.164518D-01  0.189151D-02 -0.548834D-03
     26  0.173083D-01 -0.418215D-02 -0.381274D-01 -0.764578D-03  0.226517D-02
     27  0.223927D-01  0.173302D-01 -0.243939D-01  0.726422D-03 -0.541745D-04
               21            22            23            24            25 
     21  0.472835D-01
     22 -0.205793D-01  0.134124D+00
     23 -0.244942D-01  0.101867D+00  0.205644D+00
     24  0.648858D-03 -0.167572D+00  0.127057D+00  0.560331D+00
     25  0.165433D-03 -0.992904D-01 -0.494990D-01  0.168489D+00  0.958864D-01
     26  0.362743D-03 -0.660129D-01 -0.445461D-01  0.812375D-01  0.498869D-01
     27  0.266511D-02  0.132854D+00  0.359454D-01 -0.281866D+00 -0.155374D+00
               26            27 
     26  0.469441D-01
     27 -0.413260D-01  0.318179D+00
 Leave Link  716 at Fri Jan  8 01:08:34 2021, MaxMem=    33554432 cpu:         0.0
 (Enter /apps/applications/gaussian/G09.D01/2/default/g09/l103.exe)

 GradGradGradGradGradGradGradGradGradGradGradGradGradGradGradGradGradGrad
 Berny optimization.
 Search for a saddle point.
 Step number   1 out of a maximum of  100
 All quantities printed in internal units (Hartrees-Bohrs-Radians)
 Swapping is turned off.
 Second derivative matrix not updated -- analytic derivatives used.
 ITU=  0
     Eigenvalues ---   -0.01598  -0.01104  -0.00059   0.00845   0.04692
     Eigenvalues ---    0.06606   0.07196   0.08237   0.10924   0.11015
     Eigenvalues ---    0.12833   0.14092   0.18178   0.27829   0.41800
     Eigenvalues ---    0.59234   0.66098   0.66883   0.83816   0.97234
     Eigenvalues ---    1.75108
 Eigenvectors required to have negative eigenvalues:
                          Z5        X8        Y9        Z2        Y2
   1                    0.37842   0.36373   0.34658  -0.31521  -0.25107
                          X3        X4        X2        Z3        Z9
   1                   -0.24222   0.23992  -0.23992   0.22055  -0.20672
 Eigenvalue     2 is  -1.10D-02 should be greater than     0.000000 Eigenvector:
                          X9        Z3        Y4        Y2        Y8
   1                    0.54621   0.44081   0.32826  -0.30802   0.26344
                          Z8        X8        X4        Z5        Y9
   1                   -0.25847  -0.18053  -0.17935  -0.15657  -0.13492
 Eigenvalue     3 is  -5.86D-04 should be greater than     0.000000 Eigenvector:
                          X9        Y9        Z5        Z3        Y4
   1                    0.54627  -0.38696   0.32828  -0.31014  -0.30633
                          X4        Z9        Y5        X7        X3
   1                    0.28246   0.21188   0.20299  -0.12557  -0.10525
 RFO step:  Lambda0=5.805417022D-03 Lambda=-5.08957673D-02.
 Linear search not attempted -- option 19 set.
 Maximum step size (   0.300) exceeded in Quadratic search.
    -- Step size scaled by   0.259
 TrRot=  0.114871 -0.034408  0.161534 -1.135119 -0.015964  1.144604
 Variable       Old X    -DE/DX   Delta X   Delta X   Delta X     New X
                                 (Linear)    (Quad)   (Total)
    X1       -9.73784   0.01655   0.00000   0.01329   0.01653  -9.72131
    Y1        5.96825   0.01021   0.00000  -0.00436  -0.01204   5.95621
    Z1        8.32517  -0.00611   0.00000  -0.01131  -0.00171   8.32346
    X2      -11.76769  -0.03279   0.00000   0.04620   0.05320 -11.71448
    Y2        4.76912  -0.05765   0.00000  -0.09732  -0.10544   4.66369
    Z2        9.58677  -0.04131   0.00000  -0.00130   0.01375   9.60052
    X3       -9.87940   0.00339   0.00000   0.03998   0.02222  -9.85718
    Y3        8.05520  -0.00328   0.00000  -0.01086  -0.01699   8.03821
    Z3        8.42141  -0.00030   0.00000   0.09697   0.07555   8.49696
    X4       -9.75168   0.00550   0.00000  -0.08029  -0.05910  -9.81078
    Y4        5.42038   0.00318   0.00000   0.09979   0.06161   5.48198
    Z4        6.30960   0.00030   0.00000  -0.03737  -0.02176   6.28783
    X5       -7.93122   0.00068   0.00000   0.04644   0.05104  -7.88018
    Y5        5.34939   0.00518   0.00000  -0.05945  -0.03901   5.31037
    Z5        9.17257  -0.00537   0.00000  -0.13498  -0.10353   9.06904
    X6      -13.52347   0.03863   0.00000   0.04146   0.04050 -13.48297
    Y6        4.30585   0.02169   0.00000   0.02094   0.02044   4.32629
    Z6       11.24326  -0.01269   0.00000   0.02478   0.03302  11.27627
    X7      -15.03685  -0.00734   0.00000   0.02916   0.03947 -14.99739
    Y7        3.00223  -0.01023   0.00000   0.00513  -0.00694   2.99529
    Z7       11.49146  -0.00716   0.00000  -0.03239  -0.01508  11.47639
    X8      -13.01222  -0.02482   0.00000  -0.10202  -0.13275 -13.14497
    Y8        6.10105   0.03031   0.00000   0.07625   0.10536   6.20641
    Z8       13.07600   0.07146   0.00000   0.01480  -0.00167  13.07433
    X9      -13.90544   0.00019   0.00000   0.00598  -0.03111 -13.93655
    Y9        5.73461   0.00059   0.00000  -0.05251  -0.00699   5.72762
    Z9       14.70071   0.00118   0.00000   0.03609   0.02142  14.72213
         Item               Value     Threshold  Converged?
 Maximum Force            0.071463     0.000450     NO 
 RMS     Force            0.024051     0.000300     NO 
 Maximum Displacement     0.132752     0.001800     NO 
 RMS     Displacement     0.054037     0.001200     NO 
 Predicted change in Energy=-1.164232D-02
 Lowest energy point so far.  Saving SCF results.
 GradGradGradGradGradGradGradGradGradGradGradGradGradGradGradGradGradGrad

 Leave Link  103 at Fri Jan  8 01:08:34 2021, MaxMem=    33554432 cpu:         0.0
 (Enter /apps/applications/gaussian/G09.D01/2/default/g09/l202.exe)
                          Input orientation:                          
 ---------------------------------------------------------------------
 Center     Atomic      Atomic             Coordinates (Angstroms)
 Number     Number       Type             X           Y           Z
 ---------------------------------------------------------------------
      1          6           0       -5.144294    3.151891    4.404585
      2          6           0       -6.199037    2.467917    5.080376
      3          1           0       -5.216197    4.253639    4.496399
      4          1           0       -5.191641    2.900941    3.327378
      5          1           0       -4.170012    2.810128    4.799131
      6          6           0       -7.134879    2.289374    5.967146
      7          1           0       -7.936275    1.585038    6.073043
      8          8           0       -6.956020    3.284292    6.918639
      9          1           0       -7.374904    3.030926    7.790614
 ---------------------------------------------------------------------
                    Distance matrix (angstroms):
                    1          2          3          4          5
     1  C    0.000000
     2  C    1.427234   0.000000
     3  H    1.107903   2.120332   0.000000
     4  H    1.107065   2.067694   1.788017   0.000000
     5  H    1.105302   2.076812   1.808279   1.793887   0.000000
     6  C    2.673567   1.301553   3.114928   3.334451   3.228914
     7  H    3.610255   2.186975   4.123841   4.099182   4.160341
     8  O    3.101668   2.149117   3.135899   4.019595   3.532561
     9  H    4.056531   3.007496   4.123942   4.970313   4.389653
                    6          7          8          9
     6  C    0.000000
     7  H    1.072165   0.000000
     8  O    1.388234   2.136211   0.000000
     9  H    1.983065   2.314256   1.000000   0.000000
 Stoichiometry    C3H5O(2)
 Framework group  C1[X(C3H5O)]
 Deg. of freedom    21
 Full point group                 C1      NOp   1
 RotChk:  IX=0 Diff= 9.32D-02
 Largest Abelian subgroup         C1      NOp   1
 Largest concise Abelian subgroup C1      NOp   1
                         Standard orientation:                         
 ---------------------------------------------------------------------
 Center     Atomic      Atomic             Coordinates (Angstroms)
 Number     Number       Type             X           Y           Z
 ---------------------------------------------------------------------
      1          6           0       -1.720223   -0.235058   -0.004277
      2          6           0       -0.485141    0.478242    0.048367
      3          1           0       -1.675658   -1.126970   -0.659988
      4          1           0       -2.501926    0.438185   -0.405869
      5          1           0       -2.014418   -0.540140    1.016540
      6          6           0        0.803584    0.647044   -0.020449
      7          1           0        1.440684    1.508098   -0.067631
      8          8           0        1.356515   -0.626224   -0.036259
      9          1           0        2.309876   -0.610752    0.265175
 ---------------------------------------------------------------------
 Rotational constants (GHZ):     24.2734668      5.1583147      4.3848659
 Leave Link  202 at Fri Jan  8 01:08:35 2021, MaxMem=    33554432 cpu:         0.0
 (Enter /apps/applications/gaussian/G09.D01/2/default/g09/l301.exe)
 Standard basis: 3-21G (6D, 7F)
 Ernie: Thresh=  0.10000D-02 Tol=  0.10000D-05 Strict=F.
 There are    46 symmetry adapted cartesian basis functions of A   symmetry.
 There are    46 symmetry adapted basis functions of A   symmetry.
    46 basis functions,    75 primitive gaussians,    46 cartesian basis functions
    16 alpha electrons       15 beta electrons
       nuclear repulsion energy       109.9393267220 Hartrees.
 IExCor=  402 DFT=T Ex+Corr=B3LYP ExCW=0 ScaHFX=  0.200000
 ScaDFX=  0.800000  0.720000  1.000000  0.810000 ScalE2=  1.000000  1.000000
 IRadAn=      0 IRanWt=     -1 IRanGd=            0 ICorTp=0 IEmpDi=  4
 NAtoms=    9 NActive=    9 NUniq=    9 SFac= 1.00D+00 NAtFMM=   60 NAOKFM=F Big=F
 Integral buffers will be    131072 words long.
 Raffenetti 2 integral format.
 Two-electron integral symmetry is turned on.
 Leave Link  301 at Fri Jan  8 01:08:35 2021, MaxMem=    33554432 cpu:         0.0
 (Enter /apps/applications/gaussian/G09.D01/2/default/g09/l302.exe)
 NPDir=0 NMtPBC=     1 NCelOv=     1 NCel=       1 NClECP=     1 NCelD=      1
         NCelK=      1 NCelE2=     1 NClLst=     1 CellRange=     0.0.
 One-electron integrals computed using PRISM.
 NBasis=    46 RedAO= T EigKep=  5.50D-03  NBF=    46
 NBsUse=    46 1.00D-06 EigRej= -1.00D+00 NBFU=    46
 Precomputing XC quadrature grid using
 IXCGrd= 4 IRadAn=           0 IRanWt=          -1 IRanGd=           0 AccXCQ= 0.00D+00.
 Generated NRdTot=       0 NPtTot=           0 NUsed=           0 NTot=          32
 NSgBfM=    46    46    46    46    46 MxSgAt=     9 MxSgA2=     9.
 Leave Link  302 at Fri Jan  8 01:08:35 2021, MaxMem=    33554432 cpu:         0.1
 (Enter /apps/applications/gaussian/G09.D01/2/default/g09/l303.exe)
 DipDrv:  MaxL=1.
 Leave Link  303 at Fri Jan  8 01:08:35 2021, MaxMem=    33554432 cpu:         0.0
 (Enter /apps/applications/gaussian/G09.D01/2/default/g09/l401.exe)
 Initial guess from the checkpoint file:  "/nobackup/chmrsh/Scratch/Gau-33350.chk"
 B after Tr=     0.000000    0.000000    0.000000
         Rot=    0.999910    0.011958    0.001958   -0.005776 Ang=   1.54 deg.
 Guess basis will be translated and rotated to current coordinates.
 JPrj=2 DoOrth=T DoCkMO=T.
 Initial guess <Sx>= 0.0000 <Sy>= 0.0000 <Sz>= 0.5000 <S**2>= 0.7616 S= 0.5058
 Generating alternative initial guess.
 ExpMin= 1.83D-01 ExpMax= 3.22D+02 ExpMxC= 3.22D+02 IAcc=1 IRadAn=         1 AccDes= 0.00D+00
 Harris functional with IExCor=  402 and IRadAn=       1 diagonalized for initial guess.
 HarFok:  IExCor=  402 AccDes= 0.00D+00 IRadAn=         1 IDoV= 1 UseB2=F ITyADJ=14
 ICtDFT=  3500011 ScaDFX=  1.000000  1.000000  1.000000  1.000000
 FoFCou: FMM=F IPFlag=           0 FMFlag=      100000 FMFlg1=           0
         NFxFlg=           0 DoJE=T BraDBF=F KetDBF=T FulRan=T
         wScrn=  0.000000 ICntrl=     500 IOpCl=  0 I1Cent=   200000004 NGrid=           0
         NMat0=    1 NMatS0=      1 NMatT0=    0 NMatD0=    1 NMtDS0=    0 NMtDT0=    0
 Petite list used in FoFCou.
 Harris En= -191.352972429323    
 Leave Link  401 at Fri Jan  8 01:08:35 2021, MaxMem=    33554432 cpu:         0.2
 (Enter /apps/applications/gaussian/G09.D01/2/default/g09/l508.exe)
 Direct SCF.
 Tight linear equation convergence will be used.
 UB3LYP wavefunction.
 Quadratic Convergence SCF Method.
 Line search only if initial step raises energy.
 Integral symmetry usage will be decided dynamically.
 ReadGW:  IGet=1 IStart=         402 Next=         402 LGW=           0.
 Keep R1 and R2 ints in memory in canonical form, NReq=2054798.
 FoFCou: FMM=F IPFlag=           0 FMFlag=           0 FMFlg1=           0
         NFxFlg=           0 DoJE=F BraDBF=F KetDBF=F FulRan=T
         wScrn=  0.000000 ICntrl=     600 IOpCl=  0 I1Cent=           0 NGrid=           0
         NMat0=    1 NMatS0=   1081 NMatT0=    0 NMatD0=    1 NMtDS0=    0 NMtDT0=    0
 Symmetry not used in FoFCou.
 Iteration   1 EE= -191.348250240298                                    Grad=7.743D-02 Max rot=    0.5943 deg.
 Gradient too large for Newton-Raphson -- use scaled steepest descent instead.
 Alpha Gap=     0.487 HL deriv= 3.49D-03
  Beta Gap=     0.485 HL deriv= 5.34D-03
     ILin= 1 X=0.000D+00 Y=-1.913482502403D+02 DE= 0.00D+00 F= -7.48D-03
     ILin= 2 X=3.000D-01 Y=-1.913501775323D+02 DE=-1.93D-03 F= -5.37D-03
     ILin= 3 X=6.000D-01 Y=-1.913514708129D+02 DE=-3.22D-03 F= -3.25D-03
     ILin= 4 X=1.200D+00 Y=-1.913521578090D+02 DE=-3.91D-03 F=  9.63D-04
     Accept linear search using points  3 and  4.
     An  expanding polynomial of degree  4 produced  0.9735
 Iteration   2 EE= -191.352195836097     Delta-E=       -0.003945595799 Grad=2.815D-02 Max rot=    0.2718 deg.
 Gradient too large for Newton-Raphson -- use scaled steepest descent instead.
 Alpha Gap=     0.487 HL deriv= 5.23D-04
  Beta Gap=     0.484 HL deriv= 7.92D-04
     ILin= 1 X=0.000D+00 Y=-1.913521958361D+02 DE= 0.00D+00 F= -1.25D-03
     ILin= 2 X=5.000D-01 Y=-1.913526401272D+02 DE=-4.44D-04 F= -5.31D-04
     ILin= 3 X=1.100D+00 Y=-1.913527012605D+02 DE=-5.05D-04 F=  3.27D-04
     Accept linear search using points  2 and  3.
     An  expanding polynomial of degree  3 produced  0.8291
 Iteration   3 EE= -191.352737436039     Delta-E=       -0.000541599942 Grad=2.181D-02 Max rot=    0.1792 deg.
 Gradient too large for Newton-Raphson -- use scaled steepest descent instead.
 Alpha Gap=     0.488 HL deriv= 3.60D-04
  Beta Gap=     0.487 HL deriv= 9.67D-04
     ILin= 1 X=0.000D+00 Y=-1.913527374360D+02 DE= 0.00D+00 F= -7.86D-04
     ILin= 2 X=9.000D-01 Y=-1.913528800908D+02 DE=-1.43D-04 F=  4.69D-04
     Accept linear search using points  1 and  2.
     An  expanding polynomial of degree  2 produced  0.5475
 Iteration   4 EE= -191.352958841248     Delta-E=       -0.000221405210 Grad=1.365D-02 Max rot=    0.1260 deg.
 Gradient too large for Newton-Raphson -- use scaled steepest descent instead.
 Alpha Gap=     0.488 HL deriv= 4.08D-04
  Beta Gap=     0.484 HL deriv= 5.17D-04
     ILin= 1 X=0.000D+00 Y=-1.913529588412D+02 DE= 0.00D+00 F= -3.17D-04
     ILin= 2 X=7.000D-01 Y=-1.913530793841D+02 DE=-1.21D-04 F= -2.74D-05
     Reject lnstep minimum 1.332D+00 FVal=-1.913530971185D+02 Lims=  0.00D+00  7.00D-01
     ILin= 3 X=1.300D+00 Y=-1.913530213492D+02 DE=-6.25D-05 F=  2.21D-04
     An  expanding polynomial of degree  3 produced  0.7662
     Minimum is close to point  2 DX=  6.62D-02 DF= -9.07D-07 DXR=  8.64D-02 DFR=  7.52D-03 which will be used.
 Iteration   5 EE= -191.353079384105     Delta-E=       -0.000120542856 Grad=1.148D-02 Max rot=    0.1005 deg.
 Gradient too large for Newton-Raphson -- use scaled steepest descent instead.
 Alpha Gap=     0.488 HL deriv= 2.39D-04
  Beta Gap=     0.486 HL deriv= 3.98D-04
     ILin= 1 X=0.000D+00 Y=-1.913530793841D+02 DE= 0.00D+00 F= -2.21D-04
     ILin= 2 X=6.000D-01 Y=-1.913531472815D+02 DE=-6.79D-05 F= -5.76D-06
     Reject lnstep minimum 9.009D-01 FVal=-1.913531494549D+02 Lims=  0.00D+00  6.00D-01
     ILin= 3 X=1.300D+00 Y=-1.913530636030D+02 DE= 1.58D-05 F=  2.45D-04
     An  expanding polynomial of degree  3 produced  0.6161
     Minimum is close to point  2 DX=  1.61D-02 DF= -4.64D-08 DXR=  2.61D-02 DFR=  6.83D-04 which will be used.
 Iteration   6 EE= -191.353147281539     Delta-E=       -0.000067897434 Grad=8.340D-03 Max rot=    0.0844 deg.
 QCNR:  CnvC1=3.07D-09 CnvC2=3.07D-08
 LinEq1:  Iter=  0 NonCon=     1 RMS=5.26D-04 Max=6.34D-03 NDo=     1
 AX will form     1 AO Fock derivatives at one time.
 LinEq1:  Iter=  1 NonCon=     1 RMS=3.08D-04 Max=3.71D-03 NDo=     1
 LinEq1:  Iter=  2 NonCon=     1 RMS=1.05D-04 Max=1.39D-03 NDo=     1
 LinEq1:  Iter=  3 NonCon=     1 RMS=1.05D-04 Max=1.27D-03 NDo=     1
 LinEq1:  Iter=  4 NonCon=     1 RMS=3.19D-05 Max=3.94D-04 NDo=     1
 LinEq1:  Iter=  5 NonCon=     1 RMS=1.67D-05 Max=2.06D-04 NDo=     1
 LinEq1:  Iter=  6 NonCon=     1 RMS=8.44D-06 Max=7.86D-05 NDo=     1
 LinEq1:  Iter=  7 NonCon=     1 RMS=2.85D-06 Max=2.28D-05 NDo=     1
 LinEq1:  Iter=  8 NonCon=     1 RMS=1.39D-06 Max=9.96D-06 NDo=     1
 LinEq1:  Iter=  9 NonCon=     1 RMS=5.98D-07 Max=5.66D-06 NDo=     1
 LinEq1:  Iter= 10 NonCon=     1 RMS=1.39D-07 Max=1.28D-06 NDo=     1
 LinEq1:  Iter= 11 NonCon=     1 RMS=3.62D-08 Max=5.56D-07 NDo=     1
 LinEq1:  Iter= 12 NonCon=     1 RMS=9.22D-09 Max=1.12D-07 NDo=     1
 LinEq1:  Iter= 13 NonCon=     0 RMS=1.77D-09 Max=1.71D-08 NDo=     1
 Linear equations converged to 3.074D-09 3.074D-08 after    13 iterations.
 Angle between quadratic step and gradient=  46.13 degrees.
     ILin= 1 X=0.000D+00 Y=-1.913531472815D+02 DE= 0.00D+00 F= -2.21D-04
     ILin= 2 X=1.000D+00 Y=-1.913532578008D+02 DE=-1.11D-04 F=  4.78D-07
     Accept linear search using points  1 and  2.
     An  expanding polynomial of degree  2 produced  0.9979
     Minimum is close to point  2 DX= -2.15D-03 DF= -5.13D-10 DXR=  2.15D-03 DFR=  4.65D-06 which will be used.
 Iteration   7 EE= -191.353257800753     Delta-E=       -0.000110519214 Grad=5.723D-05 Max rot=    0.0006 deg.
 QCNR:  CnvC1=5.72D-10 CnvC2=5.72D-09
 LinEq1:  Iter=  0 NonCon=     1 RMS=2.87D-06 Max=4.50D-05 NDo=     1
 LinEq1:  Iter=  1 NonCon=     1 RMS=2.19D-06 Max=2.66D-05 NDo=     1
 LinEq1:  Iter=  2 NonCon=     1 RMS=1.20D-06 Max=1.74D-05 NDo=     1
 LinEq1:  Iter=  3 NonCon=     1 RMS=8.71D-07 Max=1.11D-05 NDo=     1
 LinEq1:  Iter=  4 NonCon=     1 RMS=6.35D-07 Max=5.80D-06 NDo=     1
 LinEq1:  Iter=  5 NonCon=     1 RMS=2.21D-07 Max=1.85D-06 NDo=     1
 LinEq1:  Iter=  6 NonCon=     1 RMS=6.27D-08 Max=7.29D-07 NDo=     1
 LinEq1:  Iter=  7 NonCon=     1 RMS=3.24D-08 Max=2.60D-07 NDo=     1
 LinEq1:  Iter=  8 NonCon=     1 RMS=1.21D-08 Max=1.84D-07 NDo=     1
 LinEq1:  Iter=  9 NonCon=     1 RMS=4.20D-09 Max=5.49D-08 NDo=     1
 LinEq1:  Iter= 10 NonCon=     1 RMS=9.56D-10 Max=6.88D-09 NDo=     1
 LinEq1:  Iter= 11 NonCon=     0 RMS=1.97D-10 Max=1.31D-09 NDo=     1
 Linear equations converged to 5.723D-10 5.723D-09 after    11 iterations.
 Angle between quadratic step and gradient=  59.17 degrees.
     ILin= 1 X=0.000D+00 Y=-1.913532578008D+02 DE= 0.00D+00 F= -5.34D-09
     ILin= 2 X=1.000D+00 Y=-1.913532578034D+02 DE=-2.67D-09
 Iteration   8 EE= -191.353257803426     Delta-E=       -0.000000002673 Grad=3.712D-09 Max rot=    0.0000 deg.
 Rotation gradient small -- convergence achieved.
 SCF Done:  E(UB3LYP) =  -191.353257803     a.u. after    8 cycles
            Convg  =    0.3712D-08                    40 Fock formations.
              S**2 =  0.7608                  -V/T =  2.0075
 <Sx>= 0.0000 <Sy>= 0.0000 <Sz>= 0.5000 <S**2>= 0.7608 S= 0.5054
 <L.S>= 0.000000000000E+00
 Annihilation of the first spin contaminant:
 S**2 before annihilation     0.7608,   after     0.7501
 Leave Link  508 at Fri Jan  8 01:09:02 2021, MaxMem=    33554432 cpu:        27.0
 (Enter /apps/applications/gaussian/G09.D01/2/default/g09/l801.exe)
 DoSCS=F DFT=T ScalE2(SS,OS)=  1.000000  1.000000
 Range of M.O.s used for correlation:     1    46
 NBasis=    46 NAE=    16 NBE=    15 NFC=     0 NFV=     0
 NROrb=     46 NOA=    16 NOB=    15 NVA=    30 NVB=    31
 Leave Link  801 at Fri Jan  8 01:09:02 2021, MaxMem=    33554432 cpu:         0.0
 (Enter /apps/applications/gaussian/G09.D01/2/default/g09/l1101.exe)
 Using compressed storage, NAtomX=     9.
 Will process     10 centers per pass.
 Leave Link 1101 at Fri Jan  8 01:09:02 2021, MaxMem=    33554432 cpu:         0.1
 (Enter /apps/applications/gaussian/G09.D01/2/default/g09/l1102.exe)
 Symmetrizing basis deriv contribution to polar:
 IMax=3 JMax=2 DiffMx= 0.00D+00
 Leave Link 1102 at Fri Jan  8 01:09:02 2021, MaxMem=    33554432 cpu:         0.0
 (Enter /apps/applications/gaussian/G09.D01/2/default/g09/l1110.exe)
 Forming Gx(P) for the SCF density, NAtomX=     9.
 Integral derivatives from FoFJK, PRISM(SPDF).
 Do as many integral derivatives as possible in FoFJK.
 G2DrvN: MDV=      33554256.
 G2DrvN: will do    10 centers at a time, making    1 passes.
 Calling FoFCou, ICntrl=  3107 FMM=F I1Cent=   0 AccDes= 0.00D+00.
 FoFJK:  IHMeth= 1 ICntrl=    3107 DoSepK=F KAlg= 0 I1Cent=   0 FoldK=F
 IRaf=         0 NMat=   1 IRICut=       1 DoRegI=T DoRafI=F ISym2E= 0.
 FoFCou: FMM=F IPFlag=           0 FMFlag=      100000 FMFlg1=           0
         NFxFlg=           0 DoJE=F BraDBF=F KetDBF=F FulRan=T
         wScrn=  0.000000 ICntrl=    3107 IOpCl=  1 I1Cent=           0 NGrid=           0
         NMat0=    1 NMatS0=      1 NMatT0=    0 NMatD0=    1 NMtDS0=    0 NMtDT0=    0
 Symmetry not used in FoFCou.
 End of G2Drv F.D. properties file   721 does not exist.
 End of G2Drv F.D. properties file   722 does not exist.
 End of G2Drv F.D. properties file   788 does not exist.
 Leave Link 1110 at Fri Jan  8 01:09:12 2021, MaxMem=    33554432 cpu:         9.9
 (Enter /apps/applications/gaussian/G09.D01/2/default/g09/l1002.exe)
 Minotr:  UHF open shell wavefunction.
          IDoAtm=111111111
          Direct CPHF calculation.
          Differentiating once with respect to electric field.
                with respect to dipole field.
          Differentiating once with respect to nuclear coordinates.
          Requested convergence is 1.0D-08 RMS, and 1.0D-07 maximum.
          Secondary convergence is 1.0D-12 RMS, and 1.0D-12 maximum.
          NewPWx=T KeepS1=F KeepF1=F KeepIn=T MapXYZ=F SortEE=F KeepMc=T.
          MDV=      33554246 using IRadAn=       2.
 Generate precomputed XC quadrature information.
 Keep R1 and R2 ints in memory in canonical form, NReq=2035813.
 FoFCou: FMM=F IPFlag=           0 FMFlag=           0 FMFlg1=           0
         NFxFlg=           0 DoJE=F BraDBF=F KetDBF=F FulRan=T
         wScrn=  0.000000 ICntrl=     600 IOpCl=  0 I1Cent=           0 NGrid=           0
         NMat0=    1 NMatS0=   1081 NMatT0=    0 NMatD0=    1 NMtDS0=    0 NMtDT0=    0
 Symmetry not used in FoFCou.
          Solving linear equations simultaneously, MaxMat=       0.
          There are    30 degrees of freedom in the 1st order CPHF.  IDoFFX=6 NUNeed=     3.
     27 vectors produced by pass  0 Test12= 3.15D-15 3.33D-09 XBig12= 1.12D+02 5.68D+00.
 AX will form    27 AO Fock derivatives at one time.
     27 vectors produced by pass  1 Test12= 3.15D-15 3.33D-09 XBig12= 1.75D+01 7.76D-01.
     27 vectors produced by pass  2 Test12= 3.15D-15 3.33D-09 XBig12= 1.54D-01 6.61D-02.
     27 vectors produced by pass  3 Test12= 3.15D-15 3.33D-09 XBig12= 5.84D-04 3.92D-03.
     27 vectors produced by pass  4 Test12= 3.15D-15 3.33D-09 XBig12= 2.06D-06 2.43D-04.
     26 vectors produced by pass  5 Test12= 3.15D-15 3.33D-09 XBig12= 4.69D-09 9.99D-06.
      8 vectors produced by pass  6 Test12= 3.15D-15 3.33D-09 XBig12= 8.34D-12 5.79D-07.
      2 vectors produced by pass  7 Test12= 3.15D-15 3.33D-09 XBig12= 1.42D-14 1.75D-08.
 InvSVY:  IOpt=1 It=  1 EMax= 3.55D-15
 Solved reduced A of dimension   171 with    30 vectors.
 FullF1:  Do perturbations    1 to     3.
 Isotropic polarizability for W=    0.000000       32.69 Bohr**3.
 End of Minotr F.D. properties file   721 does not exist.
 End of Minotr F.D. properties file   722 does not exist.
 End of Minotr F.D. properties file   788 does not exist.
 Leave Link 1002 at Fri Jan  8 01:09:22 2021, MaxMem=    33554432 cpu:         9.2
 (Enter /apps/applications/gaussian/G09.D01/2/default/g09/l701.exe)
 Compute integral second derivatives.
 ... and contract with generalized density number  0.
 Leave Link  701 at Fri Jan  8 01:09:22 2021, MaxMem=    33554432 cpu:         0.1
 (Enter /apps/applications/gaussian/G09.D01/2/default/g09/l702.exe)
 L702 exits ... SP integral derivatives will be done elsewhere.
 Leave Link  702 at Fri Jan  8 01:09:22 2021, MaxMem=    33554432 cpu:         0.0
 (Enter /apps/applications/gaussian/G09.D01/2/default/g09/l703.exe)
 Compute integral second derivatives, UseDBF=F ICtDFT=           0.
 Integral derivatives from FoFJK, PRISM(SPDF).
 Calling FoFJK, ICntrl=    100127 FMM=F ISym2X=0 I1Cent= 0 IOpClX= 1 NMat=1 NMatS=1 NMatT=0.
 FoFJK:  IHMeth= 1 ICntrl=  100127 DoSepK=F KAlg= 0 I1Cent=   0 FoldK=F
 IRaf=         0 NMat=   1 IRICut=       1 DoRegI=T DoRafI=F ISym2E= 0.
 FoFCou: FMM=F IPFlag=           0 FMFlag=      100000 FMFlg1=         800
         NFxFlg=           0 DoJE=F BraDBF=F KetDBF=F FulRan=T
         wScrn=  0.000000 ICntrl=  100127 IOpCl=  1 I1Cent=           0 NGrid=           0
         NMat0=    1 NMatS0=      1 NMatT0=    0 NMatD0=    1 NMtDS0=    0 NMtDT0=    0
 Symmetry not used in FoFCou.
 Leave Link  703 at Fri Jan  8 01:09:30 2021, MaxMem=    33554432 cpu:         8.6
 (Enter /apps/applications/gaussian/G09.D01/2/default/g09/l716.exe)
 Dipole        = 3.59935524D-01 1.96148734D-01 1.65865994D-01
 Polarizability= 5.31500884D+01 1.97287098D+00 2.72586523D+01
                 4.34658112D-01-3.28795301D-01 1.76629107D+01
 ***** Axes restored to original set *****
 -------------------------------------------------------------------
 Center     Atomic                   Forces (Hartrees/Bohr)
 Number     Number              X              Y              Z
 -------------------------------------------------------------------
      1        6           0.013253451    0.006729829   -0.005075071
      2        6          -0.024981033   -0.047421665   -0.031899147
      3        1           0.001881019   -0.003932205    0.000542432
      4        1           0.005223510    0.003444665    0.001783078
      5        1          -0.000154187    0.005155783   -0.004956748
      6        6           0.030844409    0.017632396   -0.009227764
      7        1          -0.003540718   -0.007552774   -0.005239082
      8        8          -0.023279369    0.024788637    0.054553483
      9        1           0.000752917    0.001155334   -0.000481182
 -------------------------------------------------------------------
 Cartesian Forces:  Max     0.054553483 RMS     0.019079758
 Force constants in Cartesian coordinates: 
                1             2             3             4             5 
      1  0.511905D+00
      2  0.326379D-02  0.493693D+00
      3  0.262490D-03 -0.144047D-01  0.481627D+00
      4 -0.189484D+00 -0.935136D-01  0.855644D-01  0.587305D+00
      5 -0.798939D-01 -0.903575D-01  0.635921D-01  0.182531D+00  0.155415D+00
      6  0.962219D-01  0.777592D-01 -0.983864D-01 -0.458989D+00 -0.130748D+00
      7 -0.497147D-01  0.165130D-01 -0.175519D-03 -0.432815D-02 -0.291680D-01
      8  0.240549D-01 -0.270978D+00 -0.251946D-01 -0.117282D-01 -0.186925D-01
      9 -0.176304D-03 -0.204063D-01 -0.467244D-01  0.277548D-02  0.202451D-01
     10 -0.452115D-01 -0.447039D-03 -0.116272D-01 -0.697718D-02 -0.168520D-02
     11 -0.245759D-02 -0.570725D-01 -0.524000D-01 -0.242211D-02 -0.817420D-03
     12 -0.189727D-01 -0.587709D-01 -0.260113D+00  0.148397D-01  0.954993D-02
     13 -0.226581D+00  0.678855D-01 -0.781027D-01 -0.342717D-01  0.235036D-04
     14  0.649140D-01 -0.728714D-01  0.278483D-01 -0.180839D-01  0.456562D-02
     15 -0.762774D-01  0.277535D-01 -0.783945D-01  0.214042D-01 -0.619618D-02
     16 -0.534335D-02  0.100340D-01  0.513019D-02 -0.349489D+00 -0.834311D-01
     17 -0.621614D-02 -0.403486D-02  0.147165D-03 -0.705585D-01 -0.474526D-01
     18  0.817001D-03 -0.117018D-01 -0.398137D-02  0.287484D+00  0.947368D-01
     19  0.316378D-02 -0.362576D-02  0.308563D-03 -0.122265D-01 -0.574963D-02
     20 -0.205232D-02  0.216856D-02 -0.248296D-02  0.348511D-02  0.198747D-02
     21  0.266009D-02 -0.444999D-03  0.251973D-02  0.154563D-01  0.118292D-01
     22  0.784727D-03  0.164675D-02 -0.112603D-02  0.817998D-02  0.161288D-01
     23 -0.192940D-02 -0.981736D-03  0.314580D-02  0.114720D-01 -0.362799D-02
     24 -0.367402D-02  0.189085D-03  0.258207D-02  0.320895D-01 -0.516469D-01
     25  0.480587D-03 -0.175657D-02 -0.234195D-03  0.129167D-02  0.124484D-02
     26  0.316668D-03  0.434473D-03 -0.251045D-03 -0.118154D-02 -0.102055D-02
     27 -0.861150D-03  0.268720D-04  0.870831D-03 -0.624035D-03 -0.113615D-01
                6             7             8             9            10 
      6  0.481602D+00
      7  0.329656D-02  0.531877D-01
      8  0.671004D-02 -0.165994D-01  0.306714D+00
      9 -0.216932D-02 -0.428418D-02  0.226281D-01  0.516911D-01
     10  0.299317D-01 -0.120631D-03  0.163606D-02  0.278450D-02  0.540512D-01
     11  0.197182D-01 -0.119741D-02 -0.904716D-02 -0.344122D-01  0.719135D-02
     12 -0.188050D-01 -0.120766D-02 -0.192538D-02 -0.429569D-02  0.768999D-02
     13  0.923580D-03 -0.122758D-02  0.975054D-03 -0.655812D-03 -0.102537D-02
     14 -0.484444D-02  0.296133D-01 -0.885596D-02  0.123030D-01 -0.726096D-02
     15  0.641850D-02  0.424219D-02 -0.131960D-02 -0.180493D-04 -0.301616D-01
     16  0.279898D+00  0.332972D-02  0.228348D-02  0.134024D-03 -0.673019D-04
     17  0.819225D-01 -0.117249D-02 -0.947045D-03  0.204533D-02 -0.315992D-03
     18 -0.283543D+00 -0.351374D-02 -0.372644D-02  0.206080D-02  0.777762D-03
     19  0.708345D-02 -0.108242D-02 -0.934629D-03  0.701783D-03 -0.167839D-04
     20 -0.143966D-02  0.409249D-03  0.509787D-03 -0.508575D-03 -0.287485D-04
     21 -0.516146D-02 -0.507825D-05  0.203191D-04  0.319073D-03  0.125268D-03
     22  0.391231D-01  0.227710D-03  0.154836D-03 -0.106211D-02 -0.432807D-03
     23 -0.480263D-01  0.117056D-02  0.134125D-02 -0.145948D-02  0.861797D-03
     24 -0.691403D-01  0.137473D-02  0.217091D-02 -0.119563D-02  0.415210D-03
     25  0.251127D-02 -0.271716D-03  0.157874D-03 -0.217372D-03 -0.199541D-03
     26 -0.105110D-02  0.431226D-03 -0.440449D-04 -0.434935D-03  0.487363D-04
     27 -0.108149D-01  0.272690D-03  0.636594D-03  0.332195D-03  0.643297D-04
               11            12            13            14            15 
     11  0.652945D-01
     12  0.560928D-01  0.297099D+00
     13  0.446464D-03 -0.134570D-02  0.261923D+00
     14  0.932471D-03 -0.299751D-02 -0.690676D-01  0.762339D-01
     15  0.106655D-01 -0.124125D-01  0.808095D-01 -0.327657D-01  0.851713D-01
     16 -0.184023D-02 -0.117821D-02  0.487069D-03 -0.515125D-03  0.128454D-02
     17 -0.138303D-03 -0.540026D-03 -0.168213D-02 -0.395512D-03  0.240649D-02
     18  0.211653D-04 -0.638837D-03 -0.388943D-02 -0.749864D-03 -0.195640D-03
     19 -0.298339D-03 -0.202609D-04  0.556736D-03  0.232857D-03 -0.633597D-03
     20  0.377295D-03  0.980414D-05 -0.738122D-03 -0.309737D-03  0.570018D-03
     21 -0.182018D-03 -0.628468D-04  0.751922D-03  0.237869D-03 -0.464435D-03
     22  0.397322D-03  0.288364D-03 -0.164878D-03 -0.218530D-03 -0.619844D-03
     23  0.478764D-03 -0.134878D-02  0.236740D-02  0.879603D-03 -0.110637D-02
     24  0.289654D-03 -0.676947D-03  0.159983D-02  0.867636D-03 -0.270573D-03
     25  0.180541D-03 -0.935498D-04  0.303687D-03  0.385946D-03 -0.480694D-04
     26 -0.769456D-05 -0.699029D-04 -0.209999D-03 -0.178987D-03 -0.763983D-05
     27  0.206920D-03 -0.936998D-04 -0.911554D-04  0.100797D-03  0.165876D-03
               16            17            18            19            20 
     16  0.618756D+00
     17  0.263591D+00  0.389288D+00
     18 -0.321570D+00  0.259192D-01  0.539784D+00
     19 -0.218757D+00 -0.162962D+00  0.270807D-01  0.222112D+00
     20 -0.157250D+00 -0.174061D+00  0.150589D-01  0.176285D+00  0.183087D+00
     21  0.348055D-01  0.205253D-01 -0.462379D-01 -0.353304D-01 -0.753816D-02
     22 -0.484031D-01 -0.204815D-01  0.249121D-01  0.473292D-02 -0.199186D-01
[...]
 Sum of electronic and zero-point Energies=           -191.299436
 Sum of electronic and thermal Energies=              -191.294068
 Sum of electronic and thermal Enthalpies=            -191.293124
 Sum of electronic and thermal Free Energies=         -191.328603
 
                     E (Thermal)             CV                S
                      KCal/Mol        Cal/Mol-Kelvin    Cal/Mol-Kelvin
 Total                   46.753             15.673             74.672
 Electronic               0.000              0.000              1.377
 Translational            0.889              2.981             38.044
 Rotational               0.889              2.981             23.883
 Vibrational             44.976              9.712             11.367
 Vibration     1          0.594              1.981              5.335
 Vibration     2          0.614              1.918              2.863
 Vibration     3          0.663              1.760              1.721
 Vibration     4          0.823              1.327              0.751
                       Q            Log10(Q)             Ln(Q)
 Total Bot       0.411877D-18        -18.385233        -42.333563
 Total V=0       0.260490D+14         13.415791         30.891001
 Vib (Bot)       0.328829D-30        -30.483030        -70.189770
 Vib (Bot)    1  0.537411D+01          0.730307          1.681593
 Vib (Bot)    2  0.149931D+01          0.175893          0.405008
 Vib (Bot)    3  0.775780D+00         -0.110262         -0.253887
 Vib (Bot)    4  0.363826D+00         -0.439107         -1.011080
 Vib (V=0)       0.207967D+02          1.317994          3.034794
 Vib (V=0)    1  0.589732D+01          0.770655          1.774498
 Vib (V=0)    2  0.208049D+01          0.318165          0.732603
 Vib (V=0)    3  0.142295D+01          0.153189          0.352731
 Vib (V=0)    4  0.111836D+01          0.048582          0.111863
 Electronic      0.200000D+01          0.301030          0.693147
 Translational   0.169300D+08          7.228656         16.644596
 Rotational      0.369922D+05          4.568111         10.518463
 
                                                    Gaussian input prepared by AS
 E
                                                             IR Spectrum
 
     3              333 2                                       1           11 1 1     1     11 1                                    
     4              000 9                                       8           55 4 4     2     00 0     88            4      2    1    
     8              633 7                                       8           43 6 0     6     84 0     22            6      5    3  3 
     7              010 4                                       3           23 7 7     0     34 9     52            5      1    6  9 
 
     X              XXX X                                       X           XX X X     X     XX X     XX            X      X    X  X 
                    X X X                                       X                      X      X X                          X    X    
                      X X                                       X                      X      X X                          X    X    
                      X X                                       X                      X        X                          X    X    
                      X                                         X                      X        X                          X    X    
                                                                X                      X        X                          X    X    
                                                                                       X        X                               X    
                                                                                       X        X                               X    
                                                                                       X        X                               X    
                                                                                                X                               X    
                                                                                                X                               X    
                                                                                                X                                    
                                                                                                X                                    
                                                                                                X                                    
                                                                                                X                                    
                                                                                                X                                    
                                                                                                X                                    
                                                                                                X                                    
                                                                                                X                                    
                                                                                                X                                    
 
 ***** Axes restored to original set *****
 -------------------------------------------------------------------
 Center     Atomic                   Forces (Hartrees/Bohr)
 Number     Number              X              Y              Z
 -------------------------------------------------------------------
      1        6          -0.000000899   -0.000002199   -0.000002545
      2        6          -0.000000570   -0.000000444   -0.000000324
      3        1          -0.000000444   -0.000002147   -0.000000981
      4        1          -0.000000967   -0.000000366    0.000000998
      5        1          -0.000001707   -0.000000432   -0.000001867
      6        6           0.000000074    0.000000954    0.000001495
      7        1           0.000000559    0.000001006    0.000001723
      8        8           0.000002638    0.000001657    0.000000785
      9        1           0.000001316    0.000001971    0.000000715
 -------------------------------------------------------------------
 Cartesian Forces:  Max     0.000002638 RMS     0.000001375
 Force constants in Cartesian coordinates: 
                1             2             3             4             5 
      1  0.492735D+00
      2 -0.131241D-01  0.507150D+00
      3  0.188290D-01 -0.981715D-02  0.472087D+00
      4 -0.148786D+00 -0.217139D-01  0.100749D+00  0.553492D+00
      5 -0.188689D-01 -0.511570D-01  0.398684D-01  0.139131D+00  0.103811D+00
      6  0.106614D+00  0.443353D-01 -0.132187D+00 -0.469090D+00 -0.153206D+00
      7 -0.475855D-01  0.275035D-02 -0.165419D-02 -0.493722D-02 -0.251660D-01
      8  0.724480D-02 -0.283058D+00  0.534749D-01 -0.742650D-02 -0.248314D-02
      9 -0.286957D-02  0.566483D-01 -0.558805D-01  0.615452D-02  0.244062D-01
     10 -0.491542D-01 -0.174361D-01 -0.282949D-01 -0.391533D-02  0.994494D-02
     11 -0.218373D-01 -0.109646D+00 -0.100726D+00  0.411500D-02  0.524355D-02
     12 -0.373800D-01 -0.107641D+00 -0.207742D+00  0.124445D-01 -0.190421D-02
     13 -0.248685D+00  0.540615D-01 -0.849139D-01 -0.285801D-01  0.263198D-02
     14  0.513743D-01 -0.613496D-01  0.228319D-01 -0.747235D-02  0.185449D-02
     15 -0.799870D-01  0.224927D-01 -0.765153D-01  0.287168D-01 -0.730375D-02
     16 -0.242578D-02 -0.310923D-02 -0.570131D-02 -0.341528D+00 -0.957649D-01
     17 -0.171966D-02 -0.521764D-02 -0.402165D-02 -0.969161D-01 -0.678094D-01
     18 -0.280845D-02 -0.182817D-02 -0.129366D-02  0.274441D+00  0.920989D-01
     19  0.539061D-03 -0.165862D-02 -0.106886D-02 -0.198580D-01 -0.180806D-01
     20 -0.878868D-03  0.595869D-03 -0.157799D-02 -0.120986D-01  0.121796D-02
     21  0.536030D-03 -0.351492D-03  0.462734D-03  0.206095D-01  0.120568D-01
     22  0.194965D-02  0.419052D-03  0.115104D-02 -0.478621D-02  0.580313D-02
     23 -0.136166D-02  0.141011D-02  0.644085D-03  0.225983D-02  0.100281D-01
     24 -0.251420D-02 -0.215190D-02  0.165041D-02  0.249134D-01 -0.518056D-02
     25  0.141212D-02 -0.189031D-03  0.904621D-03 -0.110056D-02  0.369601D-03
     26 -0.828673D-03  0.127263D-02 -0.676848D-03  0.121915D-03 -0.705709D-03
     27 -0.419621D-03 -0.168648D-02 -0.581626D-03  0.106178D-02 -0.835321D-03
                6             7             8             9            10 
      6  0.492995D+00
      7  0.131835D-01  0.525503D-01
      8  0.767088D-02 -0.317795D-02  0.313434D+00
      9 -0.152737D-01 -0.391671D-02 -0.636187D-01  0.676244D-01
     10  0.244913D-01 -0.427989D-03  0.130469D-02  0.292920D-03  0.582918D-01
     11  0.726335D-02 -0.603936D-02 -0.196636D-01 -0.297874D-01  0.230755D-01
     12 -0.249031D-01 -0.207506D-04  0.319371D-02  0.640738D-02  0.295282D-01
     13  0.590516D-02  0.181381D-03  0.660669D-03 -0.625611D-03 -0.524865D-02
     14 -0.257309D-02  0.315631D-01 -0.786311D-02  0.124284D-01 -0.172827D-01
     15  0.403608D-02 -0.666843D-02  0.703827D-03 -0.401874D-02 -0.275172D-01
     16  0.276829D+00  0.126423D-02  0.191525D-02  0.283515D-03  0.162809D-02
     17  0.939096D-01 -0.847493D-03 -0.660984D-03  0.143796D-02  0.463362D-03
     18 -0.280671D+00 -0.180260D-02 -0.216941D-02  0.235071D-02 -0.463932D-03
     19  0.827715D-02 -0.673240D-03 -0.561744D-03  0.802776D-03 -0.202235D-03
     20  0.265763D-02  0.115962D-03  0.245103D-03 -0.596991D-03 -0.347301D-03
     21  0.163649D-02 -0.134589D-04 -0.475251D-04  0.339460D-03  0.517464D-03
     22  0.322130D-01 -0.271751D-03  0.117815D-04  0.459205D-05 -0.630945D-03
     23  0.387614D-03  0.599732D-03  0.517051D-04 -0.735179D-03  0.278628D-03
     24 -0.416570D-01  0.108123D-02  0.860797D-03 -0.182885D-02  0.115224D-02
     25  0.157726D-02 -0.100205D-03  0.289980D-04 -0.126430D-03 -0.340544D-03
     26 -0.444754D-03  0.201580D-03 -0.130810D-05 -0.182491D-03  0.000000D+00
     27 -0.397543D-02 -0.188645D-03 -0.684954D-04  0.279772D-03  0.293876D-03
               11            12            13            14            15 
     11  0.120563D+00
     12  0.116111D+00  0.240096D+00
     13  0.139950D-02 -0.379291D-02  0.281420D+00
     14  0.330533D-02 -0.770405D-02 -0.584364D-01  0.636024D-01
     15  0.745727D-02 -0.117380D-01  0.853842D-01 -0.247744D-01  0.886047D-01
     16 -0.618055D-03 -0.269319D-02  0.885754D-03  0.483891D-03  0.611722D-03
     17  0.727590D-04 -0.206938D-02 -0.476787D-04  0.820616D-03  0.120017D-02
     18 -0.372498D-03  0.682994D-03 -0.410208D-02 -0.371092D-03  0.124589D-02
     19 -0.242491D-03  0.734342D-03  0.111225D-03 -0.306606D-03 -0.191724D-03
     20  0.334103D-03  0.311342D-04 -0.101899D-02  0.533943D-04  0.637376D-03
     21 -0.135984D-03 -0.508772D-03  0.548931D-03  0.290438D-04 -0.251223D-03
     22  0.145007D-03  0.879436D-03 -0.319926D-03  0.709139D-04 -0.508540D-04
     23 -0.107880D-03 -0.121416D-03  0.859391D-03 -0.285378D-03 -0.536033D-03
     24  0.900465D-04 -0.188855D-02  0.171140D-02  0.333005D-04 -0.144540D-02
     25  0.219521D-05  0.300456D-03  0.235140D-03  0.586974D-05 -0.297499D-03
     26 -0.101606D-03  0.104530D-03 -0.109964D-03 -0.138070D-03  0.122832D-03
     27  0.100101D-03 -0.406651D-03 -0.115208D-03  0.999950D-04  0.820000D-04
               16            17            18            19            20 
     16  0.583775D+00
     17  0.231139D+00  0.293996D+00
     18 -0.260712D+00  0.715342D-02  0.538479D+00
     19 -0.175260D+00 -0.122311D+00 -0.397797D-01  0.187697D+00
     20 -0.118136D+00 -0.147937D+00 -0.367715D-01  0.145442D+00  0.149242D+00
     21 -0.311824D-01 -0.302231D-01 -0.533942D-01  0.286383D-01  0.481335D-01
     22 -0.648080D-01 -0.404415D-02  0.496000D-01  0.565854D-02 -0.124417D-01
     23 -0.345583D-01 -0.713061D-01 -0.350771D-01 -0.226408D-02 -0.527432D-02
     24 -0.132646D-01 -0.830159D-01 -0.178123D+00  0.267578D-02 -0.126252D-01
     25 -0.353122D-02 -0.571694D-02 -0.143721D-01  0.198694D-02 -0.636456D-03
     26  0.186481D-01 -0.195812D-02 -0.226626D-01 -0.172546D-04  0.152307D-02
     27  0.358298D-01  0.156289D-01 -0.292766D-01 -0.880231D-04  0.112113D-03
               21            22            23            24            25 
     21  0.692708D-01
     22 -0.182887D-01  0.342278D+00
     23 -0.285996D-01  0.166853D+00  0.146665D+00
     24 -0.198803D-01 -0.182348D+00  0.246099D-01  0.344681D+00
     25 -0.136565D-02 -0.279069D+00 -0.132666D+00  0.166592D+00  0.280508D+00
     26 -0.861654D-03 -0.156817D+00 -0.811816D-01  0.773795D-01  0.138802D+00
     27  0.232511D-02  0.116839D+00  0.394277D-01 -0.101509D+00 -0.153213D+00
               26            27 
     26  0.812907D-01
     27 -0.527785D-01  0.133062D+00
 Leave Link  716 at Fri Jan  8 01:25:15 2021, MaxMem=    33554432 cpu:         0.0
 (Enter /apps/applications/gaussian/G09.D01/2/default/g09/l9999.exe)
 1\1\GINC-DC1S1B1B\Freq\UB3LYP\3-21G\C3H5O1(2)\CHMRSH\08-Jan-2021\0\\#P
  b3lyp/3-21G scf=qc opt(calcall, ts, noeigentest, cartesian,maxcycle=1
 00)\\Gaussian input prepared by ASE\\0,2\C,-5.0632171599,3.1289699876,
 4.2686660947\C,-6.0892811305,2.8264458439,5.2565318077\H,-5.064938434,
 4.1959334512,4.0034018818\H,-5.2113237379,2.563006131,3.3328584971\H,-
 4.0606013699,2.8764243907,4.6424972827\C,-7.020259595,2.5324362517,6.1
 123540762\H,-7.8142030171,1.8145292384,5.8796152134\O,-7.1113150461,3.
 0970498543,7.4184892276\H,-7.9088316274,2.7035465361,7.8610748073\\Ver
 sion=ES64L-G09RevD.01\State=2-A\HF=-191.3685739\S2=0.759713\S2-1=0.\S2
 A=0.750057\RMSD=0.000e+00\RMSF=1.375e-06\ZeroPoint=0.0691376\Thermal=0
 .0745056\Dipole=-0.3323808,-0.3962817,-0.2939075\DipoleDeriv=0.1433881
 ,0.0052855,-0.0597959,0.0059873,0.0978198,-0.0105181,-0.0582891,-0.009
 4147,0.1705757,-0.249291,-0.0072024,0.0822084,-0.0121826,-0.2120385,-0
 .0314212,0.0718347,-0.0392622,-0.3812171,0.0455365,-0.0166854,0.058912
 1,-0.0323001,-0.0951105,0.0823453,0.0622009,0.0625633,0.0320945,0.0492
 227,-0.0333233,0.0219853,-0.0232459,0.0437512,-0.0940771,0.0428124,-0.
 0782208,-0.1217739,-0.137813,0.0225751,0.0125308,0.0278479,0.0907783,0
 .0282911,-0.012084,0.0318394,0.0295346,0.3109992,0.1664474,-0.1837155,
 -0.00787,0.1591678,0.3908344,-0.5426651,0.1172127,1.0690512,-0.0614101
 ,-0.133777,0.0192182,-0.1208904,0.006052,-0.0581288,0.0456453,-0.03794
 45,-0.0235112,-0.226914,0.1237127,-0.0661903,0.3264373,-0.3550534,-0.3
 560716,0.3512369,-0.0378351,-1.0604627,0.1262816,-0.1270327,0.1148469,
 -0.1637836,0.2646332,0.048746,0.039308,-0.0089381,0.285709\Polar=37.31
 52381,7.0685065,21.2302402,-17.9757428,-1.5434134,41.6381366\PG=C01 [X
 (C3H5O1)]\NImag=1\\0.49273547,-0.01312411,0.50714979,0.01882896,-0.009
 81715,0.47208698,-0.14878623,-0.02171386,0.10074854,0.55349166,-0.0188
 6886,-0.05115697,0.03986836,0.13913065,0.10381105,0.10661390,0.0443353
 0,-0.13218744,-0.46908995,-0.15320649,0.49299531,-0.04758553,0.0027503
 5,-0.00165419,-0.00493722,-0.02516596,0.01318354,0.05255032,0.00724480
 ,-0.28305836,0.05347494,-0.00742650,-0.00248314,0.00767088,-0.00317795
 ,0.31343368,-0.00286957,0.05664832,-0.05588050,0.00615452,0.02440618,-
 0.01527365,-0.00391671,-0.06361873,0.06762442,-0.04915420,-0.01743608,
 -0.02829489,-0.00391533,0.00994494,0.02449133,-0.00042799,0.00130469,0
 .00029292,0.05829180,-0.02183727,-0.10964580,-0.10072564,0.00411500,0.
 00524355,0.00726335,-0.00603936,-0.01966359,-0.02978742,0.02307547,0.1
 2056314,-0.03738005,-0.10764108,-0.20774157,0.01244445,-0.00190421,-0.
 02490307,-0.00002075,0.00319371,0.00640738,0.02952821,0.11611077,0.240
 09624,-0.24868456,0.05406152,-0.08491391,-0.02858014,0.00263198,0.0059
 0516,0.00018138,0.00066067,-0.00062561,-0.00524865,0.00139950,-0.00379
 291,0.28141978,0.05137430,-0.06134962,0.02283189,-0.00747235,0.0018544
 9,-0.00257309,0.03156313,-0.00786311,0.01242835,-0.01728271,0.00330533
 ,-0.00770405,-0.05843643,0.06360236,-0.07998700,0.02249266,-0.07651532
 ,0.02871678,-0.00730375,0.00403608,-0.00666843,0.00070383,-0.00401874,
 -0.02751721,0.00745727,-0.01173800,0.08538422,-0.02477436,0.08860471,-
 0.00242578,-0.00310923,-0.00570131,-0.34152798,-0.09576491,0.27682857,
 0.00126423,0.00191525,0.00028351,0.00162809,-0.00061805,-0.00269319,0.
 00088575,0.00048389,0.00061172,0.58377468,-0.00171966,-0.00521764,-0.0
 0402165,-0.09691608,-0.06780937,0.09390955,-0.00084749,-0.00066098,0.0
 0143796,0.00046336,0.00007276,-0.00206938,-0.00004768,0.00082062,0.001
 20017,0.23113950,0.29399618,-0.00280845,-0.00182817,-0.00129366,0.2744
 4090,0.09209895,-0.28067132,-0.00180260,-0.00216941,0.00235071,-0.0004
 6393,-0.00037250,0.00068299,-0.00410208,-0.00037109,0.00124589,-0.2607
 1206,0.00715342,0.53847907,0.00053906,-0.00165862,-0.00106886,-0.01985
 798,-0.01808057,0.00827715,-0.00067324,-0.00056174,0.00080278,-0.00020
 223,-0.00024249,0.00073434,0.00011122,-0.00030661,-0.00019172,-0.17525
 978,-0.12231085,-0.03977969,0.18769747,-0.00087887,0.00059587,-0.00157
 799,-0.01209861,0.00121796,0.00265763,0.00011596,0.00024510,-0.0005969
 9,-0.00034730,0.00033410,0.00003113,-0.00101899,0.00005339,0.00063738,
 -0.11813629,-0.14793736,-0.03677153,0.14544222,0.14924218,0.00053603,-
 0.00035149,0.00046273,0.02060955,0.01205684,0.00163649,-0.00001346,-0.
 00004753,0.00033946,0.00051746,-0.00013598,-0.00050877,0.00054893,0.00
 002904,-0.00025122,-0.03118245,-0.03022314,-0.05339424,0.02863825,0.04
 813350,0.06927076,0.00194965,0.00041905,0.00115104,-0.00478621,0.00580
 313,0.03221304,-0.00027175,0.00001178,0.00000459,-0.00063094,0.0001450
 1,0.00087944,-0.00031993,0.00007091,-0.00005085,-0.06480800,-0.0040441
 5,0.04959997,0.00565854,-0.01244167,-0.01828867,0.34227784,-0.00136166
 ,0.00141011,0.00064409,0.00225983,0.01002813,0.00038761,0.00059973,0.0
 0005171,-0.00073518,0.00027863,-0.00010788,-0.00012142,0.00085939,-0.0
 0028538,-0.00053603,-0.03455828,-0.07130608,-0.03507709,-0.00226408,-0
 .00527432,-0.02859959,0.16685280,0.14666533,-0.00251420,-0.00215190,0.
 00165041,0.02491344,-0.00518056,-0.04165698,0.00108123,0.00086080,-0.0
 0182885,0.00115224,0.00009005,-0.00188855,0.00171140,0.00003330,-0.001
 44540,-0.01326460,-0.08301587,-0.17812288,0.00267578,-0.01262524,-0.01
 988032,-0.18234769,0.02460995,0.34468114,0.00141212,-0.00018903,0.0009
 0462,-0.00110056,0.00036960,0.00157726,-0.00010021,0.00002900,-0.00012
 643,-0.00034054,0.00000220,0.00030046,0.00023514,0.00000587,-0.0002975
 0,-0.00353122,-0.00571694,-0.01437205,0.00198694,-0.00063646,-0.001365
 65,-0.27906921,-0.13266637,0.16659239,0.28050753,-0.00082867,0.0012726
 3,-0.00067685,0.00012192,-0.00070571,-0.00044475,0.00020158,-0.0000013
 1,-0.00018249,-0.00000100,-0.00010161,0.00010453,-0.00010996,-0.000138
 07,0.00012283,0.01864812,-0.00195812,-0.02266258,-0.00001725,0.0015230
 7,-0.00086165,-0.15681687,-0.08118162,0.07737947,0.13880214,0.08129074
 ,-0.00041962,-0.00168648,-0.00058163,0.00106178,-0.00083532,-0.0039754
 3,-0.00018864,-0.00006850,0.00027977,0.00029388,0.00010010,-0.00040665
 ,-0.00011521,0.00010000,0.00008200,0.03582981,0.01562894,-0.02927657,-
 0.00008802,0.00011211,0.00232511,0.11683912,0.03942766,-0.10150856,-0.
 15321310,-0.05277851,0.13306196\\0.00000090,0.00000220,0.00000255,0.00
 000057,0.00000044,0.00000032,0.00000044,0.00000215,0.00000098,0.000000
 97,0.00000037,-0.00000100,0.00000171,0.00000043,0.00000187,-0.00000007
 ,-0.00000095,-0.00000149,-0.00000056,-0.00000101,-0.00000172,-0.000002
 64,-0.00000166,-0.00000079,-0.00000132,-0.00000197,-0.00000072\\\@


 ANYONE WHO IS NOT SHOCKED BY QUANTUM THEORY HAS
 NOT UNDERSTOOD IT. -- NIELS BOHR(1885-1962)
 Job cpu time:       0 days  0 hours 17 minutes 29.3 seconds.
 File lengths (MBytes):  RWF=      9 Int=      0 D2E=      0 Chk=      1 Scr=      1
 Normal termination of Gaussian 09 at Fri Jan  8 01:25:15 2021.
