7
Properties=species:S:1:pos:R:3 energy=-3168.808155107818 pbc="F F F"
C        0.96720800      -0.05016200       0.01906700
C        0.47933400       1.13760000       0.72132000
C        0.07734800       2.11631600       1.30005100
H        0.61389400      -0.06166300      -1.01898100
H        0.61389100      -0.96525400       0.50924500
H        2.06348700      -0.07230300       0.00596900
H       -0.27646300       2.97773900       1.80937800
