9
Properties=species:S:1:pos:R:3:momenta:R:3:forces:R:3 pbc="F F F"
C       -5.15304328       3.15826325       4.40548824      -0.73391762      -0.01713584       1.35249022       0.06666100      -0.18554453      -0.12549129
C       -6.22719112       2.52371122       5.07309772      -0.68339763      -0.87074201      -1.31002988       0.08174649      -0.77904749      -1.61735113
H       -5.22795547       4.26262898       4.45641746       0.81622563       0.03462906       0.10114852       0.06000952      -0.07609473       0.02205218
H       -5.16036636       2.86833923       3.33889563       0.25055912       0.03511252       0.02499069       0.15035500       0.07980375      -0.08896086
H       -4.19701987       2.83077321       4.85391702       0.10777308      -0.01117152      -0.90183357       0.13728828       0.15590590      -0.10920155
C       -7.15631101       2.27855818       5.94967448       0.58021063       0.89241525       0.11193294       0.24636925       0.03579133      -0.02882253
H       -7.95715951       1.58871161       6.08102112      -0.37043326       0.00315679      -0.31247065      -0.00024125      -0.07229458      -0.15254297
O       -6.88577040       3.22853572       6.91952195      -0.15224719      -1.10189210       0.32379420      -0.91044988       0.75847692       2.39557087
H       -7.35844084       3.03462383       7.77927823       0.41763456       0.05946845      -0.08014394       0.16826159       0.08300343      -0.29525272
