9
Properties=species:S:1:pos:R:3 energy=-5227.481892039328 pbc="F F F"
C        0.06998612       0.57903699      -1.10636899
C       -0.53353372      -0.35416941      -0.20161268
H        0.44041467       0.08290627      -2.01995128
H        0.93602557       1.08796659      -0.63644325
H       -0.63949895       1.36480827      -1.41811314
C       -1.03654462      -1.13791820       0.56514242
H       -1.47994275      -1.81247462       1.20631659
O        1.31698670       0.40986213       1.48509573
H        0.92610699      -0.22001801       2.12593461
