1
Properties=species:S:1:pos:R:3 energy=-13.590980432117094 pbc="F F F"
H        0.94694100       0.07021700      -0.04748100
