 Entering Gaussian System, Link 0=g09
 Initial command:
 /apps/applications/gaussian/G09.D01/2/default/g09/l1.exe "/nobackup/chmrsh/Scratch/Gau-160656.inp" -scrdir="/nobackup/chmrsh/Scratch/"
 Entering Link 1 = /apps/applications/gaussian/G09.D01/2/default/g09/l1.exe PID=    160657.
  
 Copyright (c) 1988,1990,1992,1993,1995,1998,2003,2009,2013,
            Gaussian, Inc.  All Rights Reserved.
  
 This is part of the Gaussian(R) 09 program.  It is based on
 the Gaussian(R) 03 system (copyright 2003, Gaussian, Inc.),
 the Gaussian(R) 98 system (copyright 1998, Gaussian, Inc.),
 the Gaussian(R) 94 system (copyright 1995, Gaussian, Inc.),
 the Gaussian 92(TM) system (copyright 1992, Gaussian, Inc.),
 the Gaussian 90(TM) system (copyright 1990, Gaussian, Inc.),
 the Gaussian 88(TM) system (copyright 1988, Gaussian, Inc.),
 the Gaussian 86(TM) system (copyright 1986, Carnegie Mellon
 University), and the Gaussian 82(TM) system (copyright 1983,
 Carnegie Mellon University). Gaussian is a federally registered
 trademark of Gaussian, Inc.
  
 This software contains proprietary and confidential information,
 including trade secrets, belonging to Gaussian, Inc.
  
 This software is provided under written license and may be
 used, copied, transmitted, or stored only in accord with that
 written license.
  
 The following legend is applicable only to US Government
 contracts under FAR:
  
                    RESTRICTED RIGHTS LEGEND
  
 Use, reproduction and disclosure by the US Government is
 subject to restrictions as set forth in subparagraphs (a)
 and (c) of the Commercial Computer Software - Restricted
 Rights clause in FAR 52.227-19.
  
 Gaussian, Inc.
 340 Quinnipiac St., Bldg. 40, Wallingford CT 06492
  
  
 ---------------------------------------------------------------
 Warning -- This program may not be used in any manner that
 competes with the business of Gaussian, Inc. or will provide
 assistance to any competitor of Gaussian, Inc.  The licensee
 of this program is prohibited from giving any competitor of
 Gaussian, Inc. access to this program.  By using this program,
 the user acknowledges that Gaussian, Inc. is engaged in the
 business of creating and licensing software in the field of
 computational chemistry and represents and warrants to the
 licensee that it is not a competitor of Gaussian, Inc. and that
 it will not use this program in any manner prohibited above.
 ---------------------------------------------------------------
  

 Cite this work as:
 Gaussian 09, Revision D.01,
 M. J. Frisch, G. W. Trucks, H. B. Schlegel, G. E. Scuseria, 
 M. A. Robb, J. R. Cheeseman, G. Scalmani, V. Barone, B. Mennucci, 
 G. A. Petersson, H. Nakatsuji, M. Caricato, X. Li, H. P. Hratchian, 
 A. F. Izmaylov, J. Bloino, G. Zheng, J. L. Sonnenberg, M. Hada, 
 M. Ehara, K. Toyota, R. Fukuda, J. Hasegawa, M. Ishida, T. Nakajima, 
 Y. Honda, O. Kitao, H. Nakai, T. Vreven, J. A. Montgomery, Jr., 
 J. E. Peralta, F. Ogliaro, M. Bearpark, J. J. Heyd, E. Brothers, 
 K. N. Kudin, V. N. Staroverov, T. Keith, R. Kobayashi, J. Normand, 
 K. Raghavachari, A. Rendell, J. C. Burant, S. S. Iyengar, J. Tomasi, 
 M. Cossi, N. Rega, J. M. Millam, M. Klene, J. E. Knox, J. B. Cross, 
 V. Bakken, C. Adamo, J. Jaramillo, R. Gomperts, R. E. Stratmann, 
 O. Yazyev, A. J. Austin, R. Cammi, C. Pomelli, J. W. Ochterski, 
 R. L. Martin, K. Morokuma, V. G. Zakrzewski, G. A. Voth, 
 P. Salvador, J. J. Dannenberg, S. Dapprich, A. D. Daniels, 
 O. Farkas, J. B. Foresman, J. V. Ortiz, J. Cioslowski, 
 and D. J. Fox, Gaussian, Inc., Wallingford CT, 2013.
 
 ******************************************
 Gaussian 09:  ES64L-G09RevD.01 24-Apr-2013
                 7-Jan-2021 
 ******************************************
 ----------------------------------------------------------------------
 #P b3lyp/3-21G scf=qc opt(calcall, ts, noeigentest, cartesian,maxcycle
 =100) NoSymm
 ----------------------------------------------------------------------
 1/5=1,6=100,10=4,11=1,14=-1,18=10,26=3,38=1/1,3;
 2/12=2,15=1,17=6,18=5,29=2,40=1/2;
 3/5=5,11=2,16=1,25=1,30=1,71=2,74=-5,140=1/1,2,3;
 4//1;
 5/5=2,8=3,38=5/8;
 8/6=4,10=90,11=11/1;
 11/6=1,8=1,9=11,15=111,16=1,31=1/1,2,10;
 10/6=1,31=1/2;
 6/7=2,8=2,9=2,10=2,18=1,28=1/1;
 7/7=1,10=1,25=1,30=1/1,2,3,16;
 1/5=1,6=100,10=4,11=1,14=-1,18=10,26=3/3(3);
 2/15=1,29=1/2;
 7/7=1,8=1,9=1,25=1,30=1,44=-1/16;
 99/12=1/99;
 2/15=1,29=1/2;
 3/5=5,11=2,16=1,25=1,30=1,71=2,74=-5,140=1/1,2,3;
 4/5=5,16=3,69=1/1;
 5/5=2,8=3,38=5/8;
 8/6=4,10=90,11=11/1;
 11/6=1,8=1,9=11,15=111,16=1,31=1/1,2,10;
 10/6=1,31=1/2;
 7/7=1,10=1,25=1,30=1/1,2,3,16;
 1/5=1,6=100,10=4,11=1,14=-1,18=10,26=3/3(-8);
 2/15=1,29=1/2;
 6/7=2,8=2,9=2,10=2,18=1,19=2,28=1/1;
 7/7=1,8=1,9=1,25=1,30=1,44=-1/16;
 99/12=1/99;
 Leave Link    1 at Thu Jan  7 02:13:00 2021, MaxMem=           0 cpu:         0.1
 (Enter /apps/applications/gaussian/G09.D01/2/default/g09/l101.exe)
 ------------------------------
 Gaussian input prepared by ASE
 ------------------------------
 Symbolic Z-matrix:
 Charge =  0 Multiplicity = 2
 C                    -9.07321   2.78888   11.25769 
 C                    -10.37412   3.05689   10.72155 
 H                    -8.7922    3.53392   12.02336 
 H                    -8.30025   2.8165    10.46747 
 H                    -9.01741   1.79337   11.73125 
 C                    -11.46171   3.29867   10.2518 
 H                    -12.48756   4.78366   11.69141 
 O                    -12.58525   3.64649   9.66224 
 H                    -13.35105   3.14983   10.08494 
 
 NAtoms=      9 NQM=        9 NQMF=       0 NMMI=      0 NMMIF=      0
                NMic=       0 NMicF=      0.
                    Isotopes and Nuclear Properties:
 (Nuclear quadrupole moments (NQMom) in fm**2, nuclear magnetic moments (NMagM)
  in nuclear magnetons)

  Atom         1           2           3           4           5           6           7           8           9
 IAtWgt=          12          12           1           1           1          12           1          16           1
 AtmWgt=  12.0000000  12.0000000   1.0078250   1.0078250   1.0078250  12.0000000   1.0078250  15.9949146   1.0078250
 NucSpn=           0           0           1           1           1           0           1           0           1
 AtZEff=   0.0000000   0.0000000   0.0000000   0.0000000   0.0000000   0.0000000   0.0000000   0.0000000   0.0000000
 NQMom=    0.0000000   0.0000000   0.0000000   0.0000000   0.0000000   0.0000000   0.0000000   0.0000000   0.0000000
 NMagM=    0.0000000   0.0000000   2.7928460   2.7928460   2.7928460   0.0000000   2.7928460   0.0000000   2.7928460
 AtZNuc=   6.0000000   6.0000000   1.0000000   1.0000000   1.0000000   6.0000000   1.0000000   8.0000000   1.0000000
 Leave Link  101 at Thu Jan  7 02:13:00 2021, MaxMem=    33554432 cpu:         0.2
 (Enter /apps/applications/gaussian/G09.D01/2/default/g09/l103.exe)

 GradGradGradGradGradGradGradGradGradGradGradGradGradGradGradGradGradGrad
 Berny optimization.
 Initialization pass.
 No Z-matrix variables, so optimization will use Cartesian coordinates.
 Trust Radius=3.00D-01 FncErr=1.00D-07 GrdErr=1.00D-06
 Number of steps in this run=    100 maximum allowed number of steps=    100.
 Search for a saddle point of order  1.
 GradGradGradGradGradGradGradGradGradGradGradGradGradGradGradGradGradGrad

 Leave Link  103 at Thu Jan  7 02:13:00 2021, MaxMem=    33554432 cpu:         0.0
 (Enter /apps/applications/gaussian/G09.D01/2/default/g09/l202.exe)
 ---------------------------------------------------------------------------------------------------
                            Z-MATRIX (ANGSTROMS AND DEGREES)
   CD    Cent   Atom    N1       Length/X        N2       Alpha/Y        N3        Beta/Z          J
 ---------------------------------------------------------------------------------------------------
      1      1  C        0  -9.073210          2.788882         11.257692
      2      2  C        0 -10.374115          3.056891         10.721550
      3      3  H        0  -8.792196          3.533922         12.023363
      4      4  H        0  -8.300252          2.816504         10.467466
      5      5  H        0  -9.017414          1.793367         11.731246
      6      6  C        0 -11.461709          3.298666         10.251796
      7      7  H        0 -12.487556          4.783656         11.691408
      8      8  O        0 -12.585249          3.646487          9.662242
      9      9  H        0 -13.351052          3.149828         10.084938
 ---------------------------------------------------------------------------------------------------
                         Z-Matrix orientation:                         
 ---------------------------------------------------------------------
 Center     Atomic      Atomic             Coordinates (Angstroms)
 Number     Number       Type             X           Y           Z
 ---------------------------------------------------------------------
      1          6           0       -9.073210    2.788882   11.257692
      2          6           0      -10.374115    3.056891   10.721550
      3          1           0       -8.792196    3.533922   12.023363
      4          1           0       -8.300252    2.816504   10.467466
      5          1           0       -9.017414    1.793367   11.731246
      6          6           0      -11.461709    3.298666   10.251796
      7          1           0      -12.487556    4.783656   11.691408
      8          8           0      -12.585249    3.646487    9.662242
      9          1           0      -13.351052    3.149828   10.084938
 ---------------------------------------------------------------------
                    Distance matrix (angstroms):
                    1          2          3          4          5
     1  C    0.000000
     2  C    1.432352   0.000000
     3  H    1.104674   2.103508   0.000000
     4  H    1.105750   2.103154   1.782558   0.000000
     5  H    1.103820   2.111071   1.779210   1.777152   0.000000
     6  C    2.641332   1.209125   3.212491   3.205278   3.229439
     7  H    3.978063   2.896372   3.915062   4.785524   4.580972
     8  O    3.951628   2.521680   4.469319   4.438295   4.521535
     9  H    4.450344   3.045663   4.968721   5.076221   4.830190
                    6          7          8          9
     6  C    0.000000
     7  H    2.308688   0.000000
     8  O    1.315635   2.328135   0.000000
     9  H    1.902527   2.448625   1.005881   0.000000
 Symmetry turned off by external request.
 Stoichiometry    C3H5O(2)
 Framework group  C1[X(C3H5O)]
 Deg. of freedom    21
 Full point group                 C1      NOp   1
 Rotational constants (GHZ):     57.1579860      3.4942065      3.3985065
 Leave Link  202 at Thu Jan  7 02:13:00 2021, MaxMem=    33554432 cpu:         0.0
 (Enter /apps/applications/gaussian/G09.D01/2/default/g09/l301.exe)
 Standard basis: 3-21G (6D, 7F)
 Ernie: Thresh=  0.10000D-02 Tol=  0.10000D-05 Strict=F.
    46 basis functions,    75 primitive gaussians,    46 cartesian basis functions
    16 alpha electrons       15 beta electrons
       nuclear repulsion energy       105.5311068225 Hartrees.
 IExCor=  402 DFT=T Ex+Corr=B3LYP ExCW=0 ScaHFX=  0.200000
 ScaDFX=  0.800000  0.720000  1.000000  0.810000 ScalE2=  1.000000  1.000000
 IRadAn=      0 IRanWt=     -1 IRanGd=            0 ICorTp=0 IEmpDi=  4
 NAtoms=    9 NActive=    9 NUniq=    9 SFac= 1.00D+00 NAtFMM=   60 NAOKFM=F Big=F
 Integral buffers will be    131072 words long.
 Raffenetti 2 integral format.
 Two-electron integral symmetry is turned off.
 Leave Link  301 at Thu Jan  7 02:13:00 2021, MaxMem=    33554432 cpu:         0.1
 (Enter /apps/applications/gaussian/G09.D01/2/default/g09/l302.exe)
 NPDir=0 NMtPBC=     1 NCelOv=     1 NCel=       1 NClECP=     1 NCelD=      1
         NCelK=      1 NCelE2=     1 NClLst=     1 CellRange=     0.0.
 One-electron integrals computed using PRISM.
 NBasis=    46 RedAO= T EigKep=  1.16D-03  NBF=    46
 NBsUse=    46 1.00D-06 EigRej= -1.00D+00 NBFU=    46
 Precomputing XC quadrature grid using
 IXCGrd= 4 IRadAn=           0 IRanWt=          -1 IRanGd=           0 AccXCQ= 0.00D+00.
 Generated NRdTot=       0 NPtTot=           0 NUsed=           0 NTot=          32
 NSgBfM=    46    46    46    46    46 MxSgAt=     9 MxSgA2=     9.
 Leave Link  302 at Thu Jan  7 02:13:00 2021, MaxMem=    33554432 cpu:         0.2
 (Enter /apps/applications/gaussian/G09.D01/2/default/g09/l303.exe)
 DipDrv:  MaxL=1.
 Leave Link  303 at Thu Jan  7 02:13:00 2021, MaxMem=    33554432 cpu:         0.0
 (Enter /apps/applications/gaussian/G09.D01/2/default/g09/l401.exe)
 ExpMin= 1.83D-01 ExpMax= 3.22D+02 ExpMxC= 3.22D+02 IAcc=1 IRadAn=         1 AccDes= 0.00D+00
 Harris functional with IExCor=  402 and IRadAn=       1 diagonalized for initial guess.
 HarFok:  IExCor=  402 AccDes= 0.00D+00 IRadAn=         1 IDoV= 1 UseB2=F ITyADJ=14
 ICtDFT=  3500011 ScaDFX=  1.000000  1.000000  1.000000  1.000000
 FoFCou: FMM=F IPFlag=           0 FMFlag=      100000 FMFlg1=           0
         NFxFlg=           0 DoJE=T BraDBF=F KetDBF=T FulRan=T
         wScrn=  0.000000 ICntrl=     500 IOpCl=  0 I1Cent=   200000004 NGrid=           0
         NMat0=    1 NMatS0=      1 NMatT0=    0 NMatD0=    1 NMtDS0=    0 NMtDT0=    0
 Symmetry not used in FoFCou.
 Harris En= -191.294902007885    
 JPrj=0 DoOrth=F DoCkMO=F.
 Initial guess <Sx>= 0.0000 <Sy>= 0.0000 <Sz>= 0.5000 <S**2>= 0.7500 S= 0.5000
 Leave Link  401 at Thu Jan  7 02:13:01 2021, MaxMem=    33554432 cpu:         0.2
 (Enter /apps/applications/gaussian/G09.D01/2/default/g09/l508.exe)
 Direct SCF.
 Tight linear equation convergence will be used.
 UB3LYP wavefunction.
 Quadratic Convergence SCF Method.
 Line search only if initial step raises energy.
 Two-electron integral symmetry not used.
 ReadGW:  IGet=1 IStart=         402 Next=         402 LGW=           0.
 Keep R1 and R2 ints in memory in canonical form, NReq=2054730.
 FoFCou: FMM=F IPFlag=           0 FMFlag=           0 FMFlg1=           0
         NFxFlg=           0 DoJE=F BraDBF=F KetDBF=F FulRan=T
         wScrn=  0.000000 ICntrl=     600 IOpCl=  0 I1Cent=           0 NGrid=           0
         NMat0=    1 NMatS0=   1081 NMatT0=    0 NMatD0=    1 NMtDS0=    0 NMtDT0=    0
 Symmetry not used in FoFCou.
 Iteration   1 EE= -191.194503431753                                    Grad=4.550D-01 Max rot=    3.5287 deg.
 Gradient too large for Newton-Raphson -- use scaled steepest descent instead.
 Alpha Gap=     0.431 HL deriv= 2.00D-02
  Beta Gap=     0.079 HL deriv= 1.46D-01
     ILin= 1 X=0.000D+00 Y=-1.911945034318D+02 DE= 0.00D+00 F= -4.93D-01
     ILin= 2 X=3.000D-01 Y=-1.912832757869D+02 DE=-8.88D-02 F= -9.94D-02
     ILin= 3 X=4.000D-01 Y=-1.912867134941D+02 DE=-9.22D-02 F=  3.04D-02
     Accept linear search using points  2 and  3.
     An  expanding polynomial of degree  3 produced  0.3400
 Iteration   2 EE= -191.286210098248     Delta-E=       -0.091706666494 Grad=1.672D-01 Max rot=    1.2768 deg.
 Gradient too large for Newton-Raphson -- use scaled steepest descent instead.
 Alpha Gap=     0.377 HL deriv= 7.24D-03
  Beta Gap=     0.146 HL deriv= 1.91D-02
     ILin= 1 X=0.000D+00 Y=-1.912862100982D+02 DE= 0.00D+00 F= -5.40D-02
     ILin= 2 X=3.000D-01 Y=-1.912968922220D+02 DE=-1.07D-02 F= -1.72D-02
     ILin= 3 X=5.000D-01 Y=-1.912979045262D+02 DE=-1.17D-02 F=  7.09D-03
     Accept linear search using points  2 and  3.
     An  expanding polynomial of degree  3 produced  0.3912
 Iteration   3 EE= -191.297957304261     Delta-E=       -0.011747206014 Grad=7.081D-02 Max rot=    0.7044 deg.
 Gradient too large for Newton-Raphson -- use scaled steepest descent instead.
 Alpha Gap=     0.369 HL deriv= 5.47D-03
  Beta Gap=     0.166 HL deriv= 7.91D-03
     ILin= 1 X=0.000D+00 Y=-1.912979573043D+02 DE= 0.00D+00 F= -8.81D-03
     ILin= 2 X=4.000D-01 Y=-1.913000287841D+02 DE=-2.07D-03 F= -1.55D-03
     ILin= 3 X=7.000D-01 Y=-1.912996799614D+02 DE=-1.72D-03 F=  3.87D-03
     An  expanding polynomial of degree  3 produced  0.4858
 Iteration   4 EE= -191.300095088519     Delta-E=       -0.002137784258 Grad=3.727D-02 Max rot=    0.3632 deg.
 Gradient too large for Newton-Raphson -- use scaled steepest descent instead.
 Alpha Gap=     0.359 HL deriv= 1.90D-03
  Beta Gap=     0.177 HL deriv= 1.59D-02
     ILin= 1 X=0.000D+00 Y=-1.913000950885D+02 DE= 0.00D+00 F= -2.71D-03
     ILin= 2 X=4.000D-01 Y=-1.913006302447D+02 DE=-5.35D-04 F=  3.41D-05
     ILin= 3 X=9.000D-01 Y=-1.912997564845D+02 DE= 3.39D-04 F=  3.46D-03
     An  expanding polynomial of degree  3 produced  0.3951
     Minimum is close to point  2 DX= -4.87D-03 DF= -8.14D-08 DXR=  1.23D-02 DFR=  1.52D-04 which will be used.
 Iteration   5 EE= -191.300630244729     Delta-E=       -0.000535156209 Grad=2.005D-02 Max rot=    0.2321 deg.
 Gradient too large for Newton-Raphson -- use scaled steepest descent instead.
 Alpha Gap=     0.362 HL deriv= 1.80D-03
  Beta Gap=     0.180 HL deriv= 3.86D-03
     ILin= 1 X=0.000D+00 Y=-1.913006302447D+02 DE= 0.00D+00 F= -6.92D-04
     ILin= 2 X=4.000D-01 Y=-1.913007952883D+02 DE=-1.65D-04 F= -1.33D-04
     ILin= 3 X=9.000D-01 Y=-1.913006872591D+02 DE=-5.70D-05 F=  5.65D-04
     An  expanding polynomial of degree  3 produced  0.4953
 Iteration   6 EE= -191.300801639890     Delta-E=       -0.000171395162 Grad=1.141D-02 Max rot=    0.1184 deg.
 Gradient too large for Newton-Raphson -- use scaled steepest descent instead.
 Alpha Gap=     0.360 HL deriv= 7.18D-04
  Beta Gap=     0.183 HL deriv= 7.68D-03
     ILin= 1 X=0.000D+00 Y=-1.913008016399D+02 DE= 0.00D+00 F= -2.88D-04
     ILin= 2 X=4.000D-01 Y=-1.913008617238D+02 DE=-6.01D-05 F= -1.24D-05
     ILin= 3 X=9.000D-01 Y=-1.913007817754D+02 DE= 1.99D-05 F=  3.32D-04
     An  expanding polynomial of degree  3 produced  0.4180
     Minimum is close to point  2 DX=  1.80D-02 DF= -1.11D-07 DXR=  4.30D-02 DFR=  1.85D-03 which will be used.
 Iteration   7 EE= -191.300861723792     Delta-E=       -0.000060083902 Grad=6.352D-03 Max rot=    0.0949 deg.
 QCNR:  CnvC1=3.07D-09 CnvC2=3.07D-08
 LinEq1:  Iter=  0 NonCon=     1 RMS=3.26D-04 Max=4.42D-03 NDo=     1
 AX will form     1 AO Fock derivatives at one time.
 LinEq1:  Iter=  1 NonCon=     1 RMS=4.32D-04 Max=6.86D-03 NDo=     1
 LinEq1:  Iter=  2 NonCon=     1 RMS=8.82D-05 Max=1.19D-03 NDo=     1
 LinEq1:  Iter=  3 NonCon=     1 RMS=2.03D-05 Max=2.63D-04 NDo=     1
 LinEq1:  Iter=  4 NonCon=     1 RMS=1.29D-05 Max=1.26D-04 NDo=     1
 LinEq1:  Iter=  5 NonCon=     1 RMS=7.42D-06 Max=7.18D-05 NDo=     1
 LinEq1:  Iter=  6 NonCon=     1 RMS=4.98D-06 Max=6.59D-05 NDo=     1
 LinEq1:  Iter=  7 NonCon=     1 RMS=1.61D-06 Max=1.36D-05 NDo=     1
 LinEq1:  Iter=  8 NonCon=     1 RMS=8.78D-07 Max=7.48D-06 NDo=     1
 LinEq1:  Iter=  9 NonCon=     1 RMS=3.88D-07 Max=3.75D-06 NDo=     1
 LinEq1:  Iter= 10 NonCon=     1 RMS=8.18D-08 Max=7.45D-07 NDo=     1
 LinEq1:  Iter= 11 NonCon=     1 RMS=1.67D-08 Max=1.38D-07 NDo=     1
 LinEq1:  Iter= 12 NonCon=     1 RMS=3.10D-09 Max=2.21D-08 NDo=     1
 LinEq1:  Iter= 13 NonCon=     0 RMS=6.08D-10 Max=4.35D-09 NDo=     1
 Linear equations converged to 3.074D-09 3.074D-08 after    13 iterations.
 Angle between quadratic step and gradient=  58.22 degrees.
     ILin= 1 X=0.000D+00 Y=-1.913008617238D+02 DE= 0.00D+00 F= -8.01D-05
     ILin= 2 X=1.000D+00 Y=-1.913009015894D+02 DE=-3.99D-05 F=  5.74D-07
     Accept linear search using points  1 and  2.
     An  expanding polynomial of degree  2 produced  0.9929
     Minimum is close to point  2 DX= -7.07D-03 DF= -2.03D-09 DXR=  7.12D-03 DFR=  5.09D-05 which will be used.
 Iteration   8 EE= -191.300901589368     Delta-E=       -0.000039865575 Grad=4.181D-05 Max rot=    0.0009 deg.
 QCNR:  CnvC1=4.18D-10 CnvC2=4.18D-09
 LinEq1:  Iter=  0 NonCon=     1 RMS=3.56D-06 Max=9.11D-05 NDo=     1
 LinEq1:  Iter=  1 NonCon=     1 RMS=1.56D-06 Max=1.73D-05 NDo=     1
 LinEq1:  Iter=  2 NonCon=     1 RMS=1.18D-06 Max=1.34D-05 NDo=     1
 LinEq1:  Iter=  3 NonCon=     1 RMS=5.81D-07 Max=7.08D-06 NDo=     1
 LinEq1:  Iter=  4 NonCon=     1 RMS=3.85D-07 Max=4.00D-06 NDo=     1
 LinEq1:  Iter=  5 NonCon=     1 RMS=1.59D-07 Max=2.33D-06 NDo=     1
 LinEq1:  Iter=  6 NonCon=     1 RMS=3.71D-08 Max=3.20D-07 NDo=     1
 LinEq1:  Iter=  7 NonCon=     1 RMS=1.22D-08 Max=1.08D-07 NDo=     1
 LinEq1:  Iter=  8 NonCon=     1 RMS=5.07D-09 Max=3.30D-08 NDo=     1
 LinEq1:  Iter=  9 NonCon=     1 RMS=2.63D-09 Max=1.84D-08 NDo=     1
 LinEq1:  Iter= 10 NonCon=     1 RMS=6.52D-10 Max=4.07D-09 NDo=     1
 LinEq1:  Iter= 11 NonCon=     0 RMS=1.46D-10 Max=1.37D-09 NDo=     1
 Linear equations converged to 4.181D-10 4.181D-09 after    11 iterations.
 Angle between quadratic step and gradient=  50.16 degrees.
     ILin= 1 X=0.000D+00 Y=-1.913009015894D+02 DE= 0.00D+00 F= -8.43D-09
     ILin= 2 X=1.000D+00 Y=-1.913009015936D+02 DE=-4.22D-09
 Iteration   9 EE= -191.300901593584     Delta-E=       -0.000000004216 Grad=9.501D-09 Max rot=    0.0000 deg.
 Rotation gradient small -- convergence achieved.
 SCF Done:  E(UB3LYP) =  -191.300901594     a.u. after    9 cycles
            Convg  =    0.9501D-08                    43 Fock formations.
              S**2 =  0.7504                  -V/T =  2.0085
 <Sx>= 0.0000 <Sy>= 0.0000 <Sz>= 0.5000 <S**2>= 0.7504 S= 0.5002
 <L.S>= 0.000000000000E+00
 Annihilation of the first spin contaminant:
 S**2 before annihilation     0.7504,   after     0.7500
 Leave Link  508 at Thu Jan  7 02:13:28 2021, MaxMem=    33554432 cpu:        27.1
 (Enter /apps/applications/gaussian/G09.D01/2/default/g09/l801.exe)
 DoSCS=F DFT=T ScalE2(SS,OS)=  1.000000  1.000000
 Range of M.O.s used for correlation:     1    46
 NBasis=    46 NAE=    16 NBE=    15 NFC=     0 NFV=     0
 NROrb=     46 NOA=    16 NOB=    15 NVA=    30 NVB=    31

 **** Warning!!: The largest alpha MO coefficient is  0.10746224D+02


 **** Warning!!: The largest beta MO coefficient is  0.10747600D+02

 Leave Link  801 at Thu Jan  7 02:13:28 2021, MaxMem=    33554432 cpu:         0.0
 (Enter /apps/applications/gaussian/G09.D01/2/default/g09/l1101.exe)
 Using compressed storage, NAtomX=     9.
 Will process     10 centers per pass.
 Leave Link 1101 at Thu Jan  7 02:13:28 2021, MaxMem=    33554432 cpu:         0.1
 (Enter /apps/applications/gaussian/G09.D01/2/default/g09/l1102.exe)
 Symmetrizing basis deriv contribution to polar:
 IMax=3 JMax=2 DiffMx= 0.00D+00
 Leave Link 1102 at Thu Jan  7 02:13:29 2021, MaxMem=    33554432 cpu:         0.1
 (Enter /apps/applications/gaussian/G09.D01/2/default/g09/l1110.exe)
 Forming Gx(P) for the SCF density, NAtomX=     9.
 Integral derivatives from FoFJK, PRISM(SPDF).
 Do as many integral derivatives as possible in FoFJK.
 G2DrvN: MDV=      33554256.
 G2DrvN: will do    10 centers at a time, making    1 passes.
 Calling FoFCou, ICntrl=  3107 FMM=F I1Cent=   0 AccDes= 0.00D+00.
 FoFJK:  IHMeth= 1 ICntrl=    3107 DoSepK=F KAlg= 0 I1Cent=   0 FoldK=F
 IRaf=         0 NMat=   1 IRICut=       1 DoRegI=T DoRafI=F ISym2E= 0.
 FoFCou: FMM=F IPFlag=           0 FMFlag=      100000 FMFlg1=           0
         NFxFlg=           0 DoJE=F BraDBF=F KetDBF=F FulRan=T
         wScrn=  0.000000 ICntrl=    3107 IOpCl=  1 I1Cent=           0 NGrid=           0
         NMat0=    1 NMatS0=      1 NMatT0=    0 NMatD0=    1 NMtDS0=    0 NMtDT0=    0
 Symmetry not used in FoFCou.
 End of G2Drv F.D. properties file   721 does not exist.
 End of G2Drv F.D. properties file   722 does not exist.
 End of G2Drv F.D. properties file   788 does not exist.
 Leave Link 1110 at Thu Jan  7 02:13:38 2021, MaxMem=    33554432 cpu:         9.4
 (Enter /apps/applications/gaussian/G09.D01/2/default/g09/l1002.exe)
 Minotr:  UHF open shell wavefunction.
          IDoAtm=111111111
          Direct CPHF calculation.
          Differentiating once with respect to electric field.
                with respect to dipole field.
          Differentiating once with respect to nuclear coordinates.
          Requested convergence is 1.0D-08 RMS, and 1.0D-07 maximum.
          Secondary convergence is 1.0D-12 RMS, and 1.0D-12 maximum.
          NewPWx=T KeepS1=F KeepF1=F KeepIn=T MapXYZ=F SortEE=F KeepMc=T.
          MDV=      33554246 using IRadAn=       2.
 Generate precomputed XC quadrature information.
 Keep R1 and R2 ints in memory in canonical form, NReq=2035820.
 FoFCou: FMM=F IPFlag=           0 FMFlag=           0 FMFlg1=           0
         NFxFlg=           0 DoJE=F BraDBF=F KetDBF=F FulRan=T
         wScrn=  0.000000 ICntrl=     600 IOpCl=  0 I1Cent=           0 NGrid=           0
         NMat0=    1 NMatS0=   1081 NMatT0=    0 NMatD0=    1 NMtDS0=    0 NMtDT0=    0
 Symmetry not used in FoFCou.
          Solving linear equations simultaneously, MaxMat=       0.
          There are    30 degrees of freedom in the 1st order CPHF.  IDoFFX=6 NUNeed=     3.
     27 vectors produced by pass  0 Test12= 3.15D-15 3.33D-09 XBig12= 1.11D+02 4.48D+00.
 AX will form    27 AO Fock derivatives at one time.
     27 vectors produced by pass  1 Test12= 3.15D-15 3.33D-09 XBig12= 3.62D+01 1.36D+00.
     27 vectors produced by pass  2 Test12= 3.15D-15 3.33D-09 XBig12= 1.99D-01 7.87D-02.
     27 vectors produced by pass  3 Test12= 3.15D-15 3.33D-09 XBig12= 2.50D-04 2.52D-03.
     27 vectors produced by pass  4 Test12= 3.15D-15 3.33D-09 XBig12= 7.33D-07 1.35D-04.
     21 vectors produced by pass  5 Test12= 3.15D-15 3.33D-09 XBig12= 1.18D-09 4.73D-06.
      4 vectors produced by pass  6 Test12= 3.15D-15 3.33D-09 XBig12= 2.29D-12 3.27D-07.
      2 vectors produced by pass  7 Test12= 3.15D-15 3.33D-09 XBig12= 6.77D-15 1.21D-08.
 InvSVY:  IOpt=1 It=  1 EMax= 5.33D-15
 Solved reduced A of dimension   162 with    30 vectors.
 FullF1:  Do perturbations    1 to     3.
 Isotropic polarizability for W=    0.000000       31.63 Bohr**3.
 End of Minotr F.D. properties file   721 does not exist.
 End of Minotr F.D. properties file   722 does not exist.
 End of Minotr F.D. properties file   788 does not exist.
 Leave Link 1002 at Thu Jan  7 02:13:46 2021, MaxMem=    33554432 cpu:         8.1
 (Enter /apps/applications/gaussian/G09.D01/2/default/g09/l601.exe)
 Copying SCF densities to generalized density rwf, IOpCl= 1 IROHF=0.

 **********************************************************************

            Population analysis using the SCF density.

 **********************************************************************

 Alpha  occ. eigenvalues --  -19.10355 -10.16533 -10.13409 -10.11270  -1.09270
 Alpha  occ. eigenvalues --   -0.77424  -0.69951  -0.59764  -0.46344  -0.43651
 Alpha  occ. eigenvalues --   -0.43062  -0.41604  -0.40359  -0.28182  -0.24806
 Alpha  occ. eigenvalues --   -0.22464
 Alpha virt. eigenvalues --    0.05338   0.08192   0.09903   0.14262   0.19682
 Alpha virt. eigenvalues --    0.21650   0.22763   0.30077   0.55577   0.70397
 Alpha virt. eigenvalues --    0.71335   0.74457   0.79720   0.81247   0.86874
 Alpha virt. eigenvalues --    0.91422   0.94067   0.96663   0.98449   1.04485
 Alpha virt. eigenvalues --    1.04637   1.06798   1.12835   1.38162   1.51166
 Alpha virt. eigenvalues --    1.57384   1.72717   1.96934   2.05190   3.63737
  Beta  occ. eigenvalues --  -19.10282 -10.16520 -10.13412 -10.11217  -1.09114
  Beta  occ. eigenvalues --   -0.77339  -0.69895  -0.59701  -0.46297  -0.43574
  Beta  occ. eigenvalues --   -0.42730  -0.41576  -0.39685  -0.24830  -0.22452
  Beta virt. eigenvalues --   -0.05045   0.05584   0.08387   0.10282   0.14275
  Beta virt. eigenvalues --    0.19760   0.21706   0.22801   0.30171   0.55682
  Beta virt. eigenvalues --    0.70445   0.71619   0.74820   0.79707   0.81924
  Beta virt. eigenvalues --    0.89424   0.93178   0.94912   0.98464   1.03041
  Beta virt. eigenvalues --    1.04633   1.04938   1.08379   1.16010   1.38200
  Beta virt. eigenvalues --    1.51691   1.57477   1.72763   1.96953   2.05193
  Beta virt. eigenvalues --    3.63895
          Condensed to atoms (all electrons):
               1          2          3          4          5          6
     1  C    5.373874   0.259735   0.372603   0.375818   0.364459  -0.100804
     2  C    0.259735   5.226074  -0.055161  -0.053896  -0.047147   0.452648
     3  H    0.372603  -0.055161   0.520905  -0.027727  -0.027982  -0.002382
     4  H    0.375818  -0.053896  -0.027727   0.512651  -0.025986  -0.004376
     5  H    0.364459  -0.047147  -0.027982  -0.025986   0.518373   0.000155
     6  C   -0.100804   0.452648  -0.002382  -0.004376   0.000155   5.481146
     7  H    0.000074  -0.000136   0.000097  -0.000003  -0.000003  -0.002016
     8  O   -0.000239  -0.145808   0.000002  -0.000002   0.000002   0.317129
     9  H   -0.000051  -0.005425   0.000000  -0.000005   0.000012  -0.053883
               7          8          9
     1  C    0.000074  -0.000239  -0.000051
     2  C   -0.000136  -0.145808  -0.005425
     3  H    0.000097   0.000002   0.000000
     4  H   -0.000003  -0.000002  -0.000005
     5  H   -0.000003   0.000002   0.000012
     6  C   -0.002016   0.317129  -0.053883
     7  H    1.022331  -0.007179   0.003475
     8  O   -0.007179   8.217129   0.267219
     9  H    0.003475   0.267219   0.421085
          Atomic-Atomic Spin Densities.
               1          2          3          4          5          6
     1  C   -0.002888  -0.000007   0.000112   0.000148   0.000127  -0.000412
     2  C   -0.000007   0.030344  -0.001037  -0.000284  -0.000064   0.002758
     3  H    0.000112  -0.001037   0.003611  -0.000558  -0.000137  -0.000204
     4  H    0.000148  -0.000284  -0.000558   0.001921   0.000026   0.000069
     5  H    0.000127  -0.000064  -0.000137   0.000026   0.000240   0.000010
     6  C   -0.000412   0.002758  -0.000204   0.000069   0.000010   0.004662
     7  H    0.000115  -0.003260   0.000172  -0.000008  -0.000004  -0.021285
     8  O   -0.000011  -0.000836  -0.000002   0.000001   0.000000   0.001652
     9  H    0.000003   0.000101   0.000001   0.000000   0.000000   0.000419
               7          8          9
     1  C    0.000115  -0.000011   0.000003
     2  C   -0.003260  -0.000836   0.000101
     3  H    0.000172  -0.000002   0.000001
     4  H   -0.000008   0.000001   0.000000
     5  H   -0.000004   0.000000   0.000000
     6  C   -0.021285   0.001652   0.000419
     7  H    1.001216  -0.016515   0.004074
     8  O   -0.016515   0.035709  -0.002563
     9  H    0.004074  -0.002563  -0.000014
 Mulliken charges and spin densities:
               1          2
     1  C   -0.645470  -0.002814
     2  C    0.369117   0.027714
     3  H    0.219646   0.001958
     4  H    0.223526   0.001313
     5  H    0.218117   0.000199
     6  C   -0.087617  -0.012331
     7  H   -0.016639   0.964505
     8  O   -0.648253   0.017435
     9  H    0.367573   0.002021
 Sum of Mulliken charges =   0.00000   1.00000
 Mulliken charges and spin densities with hydrogens summed into heavy atoms:
               1          2
     1  C    0.015819   0.000656
     2  C    0.369117   0.027714
     6  C   -0.104256   0.952174
     8  O   -0.280680   0.019456
 APT charges:
               1
     1  C    0.138444
     2  C   -0.184848
     3  H   -0.013206
     4  H   -0.001766
     5  H   -0.001428
     6  C    0.284710
     7  H    0.035070
     8  O   -0.558191
     9  H    0.301215
 Sum of APT charges =   0.00000
 APT charges with hydrogens summed into heavy atoms:
               1
     1  C    0.122044
     2  C   -0.184848
     6  C    0.319779
     8  O   -0.256976
 Electronic spatial extent (au):  <R**2>=          26974.6997
 Charge=              0.0000 electrons
 Dipole moment (field-independent basis, Debye):
    X=             -0.7272    Y=             -1.2568    Z=              0.9845  Tot=              1.7543
 Quadrupole moment (field-independent basis, Debye-Ang):
   XX=             -0.5651   YY=            -34.0910   ZZ=             -5.7096
   XY=             13.0176   XZ=            -18.1143   YZ=             -9.6840
 Traceless Quadrupole moment (field-independent basis, Debye-Ang):
   XX=             12.8902   YY=            -20.6357   ZZ=              7.7456
   XY=             13.0176   XZ=            -18.1143   YZ=             -9.6840
 Octapole moment (field-independent basis, Debye-Ang**2):
  XXX=            257.5978  YYY=           -292.4112  ZZZ=           -511.6797  XYY=            374.4917
  XXY=           -193.2127  XXZ=            104.6111  XZZ=            -10.9102  YZZ=           -151.1160
  YYZ=           -347.1850  XYZ=             97.4316
 Hexadecapole moment (field-independent basis, Debye-Ang**3):
 XXXX=          -7329.3847 YYYY=          -1876.6651 ZZZZ=         -13250.4671 XXXY=           3289.3440
 XXXZ=           1499.3224 YYYX=           3253.2072 YYYZ=          -3037.3478 ZZZX=           4819.2223
 ZZZY=          -3024.0023 XXYY=          -4388.9454 XXZZ=           -985.5267 YYZZ=          -3840.3256
 XXYZ=          -1588.2206 YYXZ=           3789.6069 ZZXY=           1572.9065
 N-N= 1.055311068225D+02 E-N=-6.570464697837D+02  KE= 1.896901511294D+02
  Exact polarizability:  50.763  -6.599  20.724   9.602  -0.999  23.402
 Approx polarizability:  79.511 -12.071  25.853  21.101  -4.568  32.891
                          Isotropic Fermi Contact Couplings
        Atom                 a.u.       MegaHertz       Gauss      10(-4) cm-1
     1  C(13)             -0.00100      -1.12052      -0.39983      -0.37377
     2  C(13)              0.00661       7.43415       2.65269       2.47977
     3  H(1)               0.00060       2.70250       0.96432       0.90146
     4  H(1)               0.00055       2.44034       0.87077       0.81401
     5  H(1)               0.00007       0.33287       0.11878       0.11103
     6  C(13)             -0.00042      -0.46780      -0.16692      -0.15604
     7  H(1)               0.25126    1123.12097     400.75748     374.63283
     8  O(17)              0.02695     -16.33927      -5.83026      -5.45019
     9  H(1)              -0.00033      -1.46929      -0.52428      -0.49010
 --------------------------------------------------------
       Center         ----  Spin Dipole Couplings  ----
                      3XX-RR        3YY-RR        3ZZ-RR
 --------------------------------------------------------
     1   Atom        0.003418     -0.000923     -0.002495
     2   Atom       -0.002366      0.000016      0.002350
     3   Atom        0.004218     -0.001952     -0.002266
     4   Atom        0.002207     -0.000897     -0.001310
     5   Atom        0.001189      0.000327     -0.001516
     6   Atom       -0.008310     -0.001250      0.009560
     7   Atom        0.000855     -0.000121     -0.000734
     8   Atom       -0.048947     -0.024685      0.073633
     9   Atom       -0.003805      0.003010      0.000795
 --------------------------------------------------------
                        XY            XZ            YZ
 --------------------------------------------------------
     1   Atom       -0.003270     -0.000453      0.000268
     2   Atom       -0.020853     -0.021484      0.021742
     3   Atom       -0.001973      0.000964     -0.000162
     4   Atom       -0.001485     -0.000817      0.000422
     5   Atom       -0.002496      0.000302     -0.000206
     6   Atom       -0.009089     -0.001976      0.021756
     7   Atom        0.002390      0.001820     -0.002866
     8   Atom        0.001012     -0.002611      0.062429
     9   Atom        0.009659      0.004343      0.011070
 --------------------------------------------------------


 ---------------------------------------------------------------------------------
              Anisotropic Spin Dipole Couplings in Principal Axis System
 ---------------------------------------------------------------------------------

       Atom             a.u.   MegaHertz   Gauss  10(-4) cm-1        Axes

              Baa    -0.0027    -0.360    -0.128    -0.120  0.4590  0.8763 -0.1462
     1 C(13)  Bbb    -0.0025    -0.339    -0.121    -0.113  0.1287  0.0973  0.9869
              Bcc     0.0052     0.699     0.249     0.233  0.8791 -0.4718 -0.0681
 
              Baa    -0.0223    -2.988    -1.066    -0.997  0.8210  0.5008  0.2742
     2 C(13)  Bbb    -0.0205    -2.756    -0.983    -0.919  0.1441 -0.6464  0.7493
              Bcc     0.0428     5.744     2.049     1.916 -0.5525  0.5756  0.6028
 
              Baa    -0.0026    -1.384    -0.494    -0.462  0.3056  0.8137 -0.4945
     3 H(1)   Bbb    -0.0023    -1.244    -0.444    -0.415  0.0277  0.5115  0.8588
              Bcc     0.0049     2.628     0.938     0.877  0.9518 -0.2762  0.1338
 
              Baa    -0.0016    -0.846    -0.302    -0.282 -0.1147 -0.6876  0.7169
     4 H(1)   Bbb    -0.0014    -0.754    -0.269    -0.251  0.4069  0.6259  0.6654
              Bcc     0.0030     1.599     0.571     0.534  0.9062 -0.3680 -0.2080
 
              Baa    -0.0018    -0.950    -0.339    -0.317  0.6449  0.7488 -0.1530
     5 H(1)   Bbb    -0.0015    -0.820    -0.293    -0.274  0.0421  0.1651  0.9854
              Bcc     0.0033     1.770     0.632     0.591  0.7631 -0.6419  0.0750
 
              Baa    -0.0212    -2.850    -1.017    -0.951  0.4470  0.7439 -0.4968
     6 C(13)  Bbb    -0.0068    -0.909    -0.324    -0.303  0.8725 -0.2401  0.4255
              Bcc     0.0280     3.759     1.341     1.254 -0.1972  0.6236  0.7564
 
              Baa    -0.0048    -2.587    -0.923    -0.863 -0.4621  0.6187  0.6353
     7 H(1)   Bbb     0.0019     1.027     0.366     0.343  0.6403 -0.2629  0.7217
              Bcc     0.0029     1.560     0.557     0.520  0.6136  0.7403 -0.2747
 
              Baa    -0.0556     4.025     1.436     1.342 -0.2947  0.8581 -0.4204
     8 O(17)  Bbb    -0.0483     3.498     1.248     1.167  0.9555  0.2704 -0.1179
              Bcc     0.1040    -7.522    -2.684    -2.509 -0.0125  0.4365  0.8996
 
              Baa    -0.0119    -6.339    -2.262    -2.115 -0.6122  0.6875 -0.3907
     9 H(1)   Bbb    -0.0059    -3.164    -1.129    -1.055 -0.6647 -0.1798  0.7252
              Bcc     0.0178     9.503     3.391     3.170  0.4283  0.7036  0.5670
 

 ---------------------------------------------------------------------------------

 No NMR shielding tensors so no spin-rotation constants.
 Leave Link  601 at Thu Jan  7 02:13:46 2021, MaxMem=    33554432 cpu:         0.1
 (Enter /apps/applications/gaussian/G09.D01/2/default/g09/l701.exe)
 Compute integral second derivatives.
 ... and contract with generalized density number  0.
 Leave Link  701 at Thu Jan  7 02:13:47 2021, MaxMem=    33554432 cpu:         0.1
 (Enter /apps/applications/gaussian/G09.D01/2/default/g09/l702.exe)
 L702 exits ... SP integral derivatives will be done elsewhere.
 Leave Link  702 at Thu Jan  7 02:13:47 2021, MaxMem=    33554432 cpu:         0.1
 (Enter /apps/applications/gaussian/G09.D01/2/default/g09/l703.exe)
 Compute integral second derivatives, UseDBF=F ICtDFT=           0.
 Integral derivatives from FoFJK, PRISM(SPDF).
 Calling FoFJK, ICntrl=    100127 FMM=F ISym2X=0 I1Cent= 0 IOpClX= 1 NMat=1 NMatS=1 NMatT=0.
 FoFJK:  IHMeth= 1 ICntrl=  100127 DoSepK=F KAlg= 0 I1Cent=   0 FoldK=F
 IRaf=         0 NMat=   1 IRICut=       1 DoRegI=T DoRafI=F ISym2E= 0.
 FoFCou: FMM=F IPFlag=           0 FMFlag=      100000 FMFlg1=         800
         NFxFlg=           0 DoJE=F BraDBF=F KetDBF=F FulRan=T
         wScrn=  0.000000 ICntrl=  100127 IOpCl=  1 I1Cent=           0 NGrid=           0
         NMat0=    1 NMatS0=      1 NMatT0=    0 NMatD0=    1 NMtDS0=    0 NMtDT0=    0
 Symmetry not used in FoFCou.
 Leave Link  703 at Thu Jan  7 02:13:55 2021, MaxMem=    33554432 cpu:         8.2
 (Enter /apps/applications/gaussian/G09.D01/2/default/g09/l716.exe)
 Dipole        =-2.86104934D-01-4.94459149D-01 3.87322766D-01
 Polarizability= 5.07632858D+01-6.59891419D+00 2.07238190D+01
                 9.60228348D+00-9.98551797D-01 2.34022613D+01
 -------------------------------------------------------------------
 Center     Atomic                   Forces (Hartrees/Bohr)
 Number     Number              X              Y              Z
 -------------------------------------------------------------------
      1        6           0.021031983   -0.003250661    0.009227064
      2        6          -0.025842151    0.002066544   -0.009999388
      3        1           0.000138868   -0.002862150   -0.002421092
      4        1          -0.003208753    0.000001431    0.003264349
      5        1          -0.000607701    0.003011843   -0.001630563
      6        6           0.034999432   -0.001665387    0.006217522
      7        1          -0.001135188    0.003486416    0.004935605
      8        8          -0.025974905   -0.006392394   -0.003706704
      9        1           0.000598415    0.005604359   -0.005886794
 -------------------------------------------------------------------
 Cartesian Forces:  Max     0.034999432 RMS     0.011315613
 Force constants in Cartesian coordinates: 
                1             2             3             4             5 
      1  0.537951D+00
      2 -0.718901D-02  0.514788D+00
      3  0.141652D-01 -0.458839D-02  0.516744D+00
      4 -0.271191D+00  0.406619D-01 -0.881217D-01  0.122456D+01
      5  0.422833D-01 -0.705292D-01  0.216722D-01 -0.247181D+00  0.155028D+00
      6 -0.880264D-01  0.210928D-01 -0.986679D-01  0.485117D+00 -0.114091D+00
      7 -0.603337D-01 -0.376444D-01 -0.372337D-01 -0.206809D-01 -0.213851D-01
      8 -0.371035D-01 -0.160737D+00 -0.112277D+00  0.367623D-05  0.856073D-02
      9 -0.367251D-01 -0.112767D+00 -0.161033D+00 -0.112594D-01 -0.406898D-02
     10 -0.157602D+00 -0.511218D-02  0.118304D+00 -0.350246D-01  0.713421D-03
     11 -0.514924D-02 -0.474895D-01  0.473133D-02  0.694615D-02 -0.201874D-02
     12  0.117487D+00  0.517951D-02 -0.175103D+00 -0.122740D-01 -0.128788D-02
     13 -0.482708D-01  0.566414D-02 -0.338236D-02 -0.964015D-02  0.346409D-01
     14  0.514250D-02 -0.244991D+00  0.921821D-01  0.758644D-02 -0.273881D-02
     15 -0.344022D-02  0.922924D-01 -0.902576D-01 -0.503848D-02  0.113871D-01
     16 -0.414535D-02  0.269880D-02  0.192595D-04 -0.877104D+00  0.183354D+00
     17  0.188817D-02  0.291716D-02 -0.239458D-02  0.184295D+00 -0.981625D-01
     18 -0.161744D-02 -0.748456D-03  0.332573D-02 -0.365984D+00  0.839443D-01
     19  0.279581D-03  0.948842D-04  0.132544D-03 -0.350415D-02  0.143552D-02
     20 -0.166292D-03 -0.607684D-04  0.641623D-04  0.233048D-02 -0.810532D-03
     21  0.856152D-04  0.306690D-04  0.866730D-04 -0.314794D-03 -0.236152D-03
     22  0.322948D-02 -0.111798D-02 -0.244557D-02 -0.119441D-01  0.884313D-02
     23 -0.179136D-03  0.514669D-02  0.129865D-02  0.452710D-02  0.121357D-01
     24 -0.240947D-02 -0.115773D-02  0.598451D-02 -0.510253D-03  0.189553D-02
     25  0.828875D-04  0.194384D-02 -0.143746D-02  0.452833D-02 -0.270453D-02
     26  0.473180D-03  0.955995D-03 -0.688376D-03  0.830295D-03 -0.146454D-02
     27  0.480865D-03  0.665926D-03 -0.107911D-02 -0.161465D-02  0.784915D-03
                6             7             8             9            10 
      6  0.310811D+00
      7 -0.281413D-01  0.748512D-01
      8  0.788536D-02  0.414483D-01  0.175282D+00
      9 -0.110039D-01  0.480424D-01  0.125567D+00  0.178979D+00
     10  0.177862D-01  0.605129D-02  0.102444D-02 -0.551204D-02  0.184683D+00
     11 -0.445963D-02  0.172054D-01  0.556673D-04 -0.181070D-01  0.370176D-02
     12  0.144307D-01  0.160847D-01  0.171699D-02 -0.184893D-01 -0.129388D+00
     13 -0.187486D-01 -0.577428D-03 -0.681802D-02  0.447615D-02  0.705725D-03
     14  0.288908D-02 -0.257990D-03 -0.227189D-01  0.102555D-01 -0.954901D-03
     15 -0.938080D-02  0.126959D-02 -0.225782D-01  0.106900D-01 -0.556651D-03
     16 -0.356760D+00  0.325173D-02  0.126722D-02  0.237476D-02  0.183741D-02
     17  0.826451D-01 -0.150230D-02 -0.272279D-03 -0.169301D-02  0.804519D-04
     18 -0.215058D+00  0.380726D-03 -0.333334D-03  0.122396D-02  0.174779D-02
     19 -0.643989D-03  0.120592D-03 -0.106130D-03  0.130456D-04  0.481161D-04
     20 -0.190267D-03 -0.741125D-04  0.512094D-04 -0.361531D-04 -0.557468D-04
     21 -0.104824D-02 -0.441791D-04  0.215044D-05 -0.152148D-04 -0.410924D-04
     22 -0.142393D-01 -0.304201D-02  0.256869D-03 -0.155751D-02 -0.121868D-02
     23  0.207744D-02  0.232022D-02 -0.350032D-04  0.567961D-03  0.161212D-03
     24  0.106211D-01 -0.694933D-04  0.168168D-03 -0.481712D-03 -0.292855D-02
     25  0.365667D-02  0.359224D-03  0.271524D-04  0.147665D-03  0.519664D-03
     26  0.215111D-02 -0.110090D-03 -0.186128D-03  0.281856D-03  0.441542D-03
     27 -0.703697D-03 -0.288876D-03 -0.150544D-03  0.130382D-03  0.588175D-03
               11            12            13            14            15 
     11  0.497450D-01
     12 -0.631326D-02  0.192508D+00
     13 -0.226131D-01  0.944369D-02  0.587409D-01
     14 -0.120744D-02 -0.103115D-03 -0.968431D-02  0.271610D+00
     15  0.237634D-01 -0.118551D-01  0.790745D-02 -0.104998D+00  0.995852D-01
     16 -0.427685D-03 -0.163864D-02  0.133760D-02 -0.273169D-02  0.716848D-03
     17  0.884352D-03  0.702716D-03 -0.349218D-03  0.835119D-04  0.496024D-03
     18 -0.398516D-03 -0.575596D-03  0.701979D-03 -0.693411D-03  0.131619D-02
     19 -0.966865D-04  0.308490D-04  0.728958D-04 -0.454242D-04 -0.441158D-05
     20  0.720781D-04 -0.414312D-04 -0.623805D-04  0.370611D-04 -0.305993D-04
     21  0.171330D-04 -0.221347D-05 -0.572642D-04  0.292726D-04 -0.130049D-04
     22  0.633977D-03  0.152131D-03 -0.209121D-02  0.116589D-02 -0.664793D-03
     23  0.239777D-03  0.179568D-04 -0.404000D-03 -0.210961D-03 -0.333624D-03
     24  0.878792D-03 -0.109102D-02  0.158153D-03  0.204252D-03 -0.154997D-03
     25 -0.200636D-03  0.101871D-03 -0.277533D-03 -0.220505D-03 -0.189348D-03
     26 -0.281130D-03  0.128523D-03 -0.374071D-03  0.136630D-03  0.201847D-05
     27 -0.112240D-03  0.177779D-03 -0.499213D-03  0.234766D-03  0.700552D-04
               16            17            18            19            20 
     16  0.132206D+01
     17 -0.267555D+00  0.157227D+00
     18  0.536114D+00 -0.135587D+00  0.332039D+00
     19  0.510556D-02 -0.230734D-02  0.558640D-03 -0.142139D-02
     20 -0.433225D-03 -0.238456D-03 -0.145344D-03 -0.899378D-03  0.265583D-02
     21  0.518712D-02 -0.398383D-02  0.269556D-03 -0.205610D-02  0.613294D-02
     22 -0.395033D+00  0.983176D-01 -0.175411D+00 -0.633248D-03 -0.696511D-03
     23  0.608429D-01 -0.677678D-01  0.559983D-01  0.228309D-02 -0.170009D-02
     24 -0.151553D+00  0.678843D-01 -0.125866D+00  0.234472D-02 -0.578630D-02
     25 -0.573111D-01 -0.128671D-01  0.350885D-02 -0.679557D-04  0.571693D-04
     26  0.229847D-01  0.532945D-02 -0.203678D-02 -0.358537D-03 -0.633184D-05
     27 -0.344600D-01 -0.806999D-02  0.332473D-02 -0.375290D-03  0.329858D-04
               21            22            23            24            25 
     21  0.650738D-02
     22 -0.253570D-02  0.631627D+00
     23 -0.155671D-02  0.474968D-01  0.159797D+00
     24 -0.560629D-02  0.602354D-01 -0.152914D+00  0.204293D+00
     25 -0.223601D-03 -0.220894D+00 -0.117048D+00  0.947323D-01  0.273060D+00
     26 -0.435484D-03 -0.154900D+00 -0.107605D+00  0.888271D-01  0.131013D+00
     27 -0.178649D-03  0.136466D+00  0.948442D-01 -0.876985D-01 -0.100297D+00
               26            27 
     26  0.103121D+00
     27 -0.882300D-01  0.859570D-01
 Leave Link  716 at Thu Jan  7 02:13:55 2021, MaxMem=    33554432 cpu:         0.0
 (Enter /apps/applications/gaussian/G09.D01/2/default/g09/l103.exe)

 GradGradGradGradGradGradGradGradGradGradGradGradGradGradGradGradGradGrad
 Berny optimization.
 Search for a saddle point.
 Step number   1 out of a maximum of  100
 All quantities printed in internal units (Hartrees-Bohrs-Radians)
 Swapping is turned off.
 Second derivative matrix not updated -- analytic derivatives used.
 ITU=  0
     Eigenvalues ---   -0.00302   0.00036   0.00420   0.00640   0.00794
     Eigenvalues ---    0.01589   0.04543   0.08168   0.08357   0.10938
     Eigenvalues ---    0.11417   0.14741   0.16688   0.20504   0.26497
     Eigenvalues ---    0.51776   0.67868   0.68947   0.70994   0.98284
     Eigenvalues ---    2.71330
 Eigenvectors required to have negative eigenvalues:
                          X7        Y7        Z7        Z8        Y8
   1                    0.83913  -0.31663   0.30972  -0.16234  -0.10021
                          X5        X4        Y3        X1        X2
   1                   -0.08465  -0.08209   0.07241  -0.07202  -0.06996
 RFO step:  Lambda0=1.711655683D-06 Lambda=-5.85935053D-03.
 Linear search not attempted -- option 19 set.
 Maximum step size (   0.300) exceeded in Quadratic search.
    -- Step size scaled by   0.799
 TrRot=  0.055166 -0.041940  0.041500  2.003269  0.004536 -2.000832
 Variable       Old X    -DE/DX   Delta X   Delta X   Delta X     New X
                                 (Linear)    (Quad)   (Total)
    X1      -17.14588   0.02103   0.00000   0.02295   0.02491 -17.12098
    Y1        5.27022  -0.00325   0.00000  -0.00863  -0.00471   5.26552
    Z1       21.27395   0.00923   0.00000   0.02277   0.00998  21.28393
    X2      -19.60424  -0.02584   0.00000   0.00720   0.00992 -19.59432
    Y2        5.77669   0.00207   0.00000   0.01537   0.00882   5.78551
    Z2       20.26079  -0.01000   0.00000  -0.03797  -0.05762  20.20317
    X3      -16.61484   0.00014   0.00000   0.00790   0.00371 -16.61114
    Y3        6.67814  -0.00286   0.00000  -0.01950  -0.00838   6.66977
    Z3       22.72086  -0.00242   0.00000   0.02234   0.00474  22.72560
    X4      -15.68520  -0.00321   0.00000   0.02566   0.03031 -15.65489
    Y4        5.32242   0.00000   0.00000  -0.02019  -0.01876   5.30366
    Z4       19.78064   0.00326   0.00000   0.04304   0.03286  19.81350
    X5      -17.04044  -0.00061   0.00000  -0.02830  -0.02345 -17.06390
    Y5        3.38897   0.00301   0.00000  -0.00589   0.00182   3.39079
    Z5       22.16884  -0.00163   0.00000   0.01070   0.00575  22.17459
    X6      -21.65949   0.03500   0.00000   0.03426   0.03760 -21.62189
    Y6        6.23357  -0.00167   0.00000   0.03005   0.01475   6.24832
    Z6       19.37309   0.00622   0.00000  -0.07415  -0.09957  19.27352
    X7      -23.59806  -0.00114   0.00000  -0.01689  -0.02636 -23.62442
    Y7        9.03980   0.00349   0.00000   0.13712   0.12934   9.16914
    Z7       22.09356   0.00494   0.00000   0.21828   0.17705  22.27061
    X8      -23.78267  -0.02597   0.00000  -0.04427  -0.04025 -23.82293
    Y8        6.89086  -0.00639   0.00000  -0.05957  -0.08469   6.80618
    Z8       18.25899  -0.00371   0.00000  -0.03566  -0.06757  18.19142
    X9      -25.22983   0.00060   0.00000  -0.02093  -0.01637 -25.24621
    Y9        5.95231   0.00560   0.00000  -0.01316  -0.03820   5.91412
    Z9       19.05777  -0.00589   0.00000   0.02534  -0.00560  19.05217
         Item               Value     Threshold  Converged?
 Maximum Force            0.034999     0.000450     NO 
 RMS     Force            0.011316     0.000300     NO 
 Maximum Displacement     0.177046     0.001800     NO 
 RMS     Displacement     0.055348     0.001200     NO 
 Predicted change in Energy=-3.075749D-03
 Lowest energy point so far.  Saving SCF results.
 GradGradGradGradGradGradGradGradGradGradGradGradGradGradGradGradGradGrad

 Leave Link  103 at Thu Jan  7 02:13:55 2021, MaxMem=    33554432 cpu:         0.0
 (Enter /apps/applications/gaussian/G09.D01/2/default/g09/l202.exe)
                          Input orientation:                          
 ---------------------------------------------------------------------
 Center     Atomic      Atomic             Coordinates (Angstroms)
 Number     Number       Type             X           Y           Z
 ---------------------------------------------------------------------
      1          6           0       -9.060030    2.786391   11.262971
      2          6           0      -10.368867    3.061560   10.691056
      3          1           0       -8.790234    3.529489   12.025872
      4          1           0       -8.284211    2.806575   10.484855
      5          1           0       -9.029825    1.794330   11.734286
      6          6           0      -11.441812    3.306470   10.199106
      7          1           0      -12.501506    4.852098   11.785097
      8          8           0      -12.606549    3.601673    9.626485
      9          1           0      -13.359717    3.129615   10.081973
 ---------------------------------------------------------------------
                    Distance matrix (angstroms):
                    1          2          3          4          5
     1  C    0.000000
     2  C    1.454599   0.000000
     3  H    1.098637   2.119616   0.000000
     4  H    1.098985   2.110291   1.775780   0.000000
     5  H    1.098743   2.118309   1.775726   1.772473   0.000000
     6  C    2.659920   1.205490   3.227642   3.209672   3.234351
     7  H    4.047656   2.991839   3.947253   4.864193   4.626564
     8  O    3.990059   2.536189   4.508495   4.477900   4.527943
     9  H    4.472121   3.052998   4.981848   5.101709   4.822975
                    6          7          8          9
     6  C    0.000000
     7  H    2.455052   0.000000
     8  O    1.331034   2.496839   0.000000
     9  H    1.929600   2.569846   0.998784   0.000000
 Symmetry turned off by external request.
 Stoichiometry    C3H5O(2)
 Framework group  C1[X(C3H5O)]
 Deg. of freedom    21
 Full point group                 C1      NOp   1
 Rotational constants (GHZ):     53.1740977      3.4449036      3.3345050
 Leave Link  202 at Thu Jan  7 02:13:55 2021, MaxMem=    33554432 cpu:         0.0
 (Enter /apps/applications/gaussian/G09.D01/2/default/g09/l301.exe)
 Standard basis: 3-21G (6D, 7F)
 Ernie: Thresh=  0.10000D-02 Tol=  0.10000D-05 Strict=F.
    46 basis functions,    75 primitive gaussians,    46 cartesian basis functions
    16 alpha electrons       15 beta electrons
       nuclear repulsion energy       104.7160542042 Hartrees.
 IExCor=  402 DFT=T Ex+Corr=B3LYP ExCW=0 ScaHFX=  0.200000
 ScaDFX=  0.800000  0.720000  1.000000  0.810000 ScalE2=  1.000000  1.000000
 IRadAn=      0 IRanWt=     -1 IRanGd=            0 ICorTp=0 IEmpDi=  4
 NAtoms=    9 NActive=    9 NUniq=    9 SFac= 1.00D+00 NAtFMM=   60 NAOKFM=F Big=F
 Integral buffers will be    131072 words long.
 Raffenetti 2 integral format.
 Two-electron integral symmetry is turned off.
 Leave Link  301 at Thu Jan  7 02:13:55 2021, MaxMem=    33554432 cpu:         0.1
 (Enter /apps/applications/gaussian/G09.D01/2/default/g09/l302.exe)
 NPDir=0 NMtPBC=     1 NCelOv=     1 NCel=       1 NClECP=     1 NCelD=      1
         NCelK=      1 NCelE2=     1 NClLst=     1 CellRange=     0.0.
 One-electron integrals computed using PRISM.
 NBasis=    46 RedAO= T EigKep=  1.18D-03  NBF=    46
 NBsUse=    46 1.00D-06 EigRej= -1.00D+00 NBFU=    46
 Precomputing XC quadrature grid using
 IXCGrd= 4 IRadAn=           0 IRanWt=          -1 IRanGd=           0 AccXCQ= 0.00D+00.
 Generated NRdTot=       0 NPtTot=           0 NUsed=           0 NTot=          32
 NSgBfM=    46    46    46    46    46 MxSgAt=     9 MxSgA2=     9.
 Leave Link  302 at Thu Jan  7 02:13:55 2021, MaxMem=    33554432 cpu:         0.2
 (Enter /apps/applications/gaussian/G09.D01/2/default/g09/l303.exe)
 DipDrv:  MaxL=1.
 Leave Link  303 at Thu Jan  7 02:13:55 2021, MaxMem=    33554432 cpu:         0.1
 (Enter /apps/applications/gaussian/G09.D01/2/default/g09/l401.exe)
 Initial guess from the checkpoint file:  "/nobackup/chmrsh/Scratch/Gau-160657.chk"
 B after Tr=     0.096001   -0.071129    0.075159
         Rot=    0.999988    0.003997    0.001577   -0.002510 Ang=   0.57 deg.
 Guess basis will be translated and rotated to current coordinates.
 JPrj=2 DoOrth=T DoCkMO=T.
 Initial guess <Sx>= 0.0000 <Sy>= 0.0000 <Sz>= 0.5000 <S**2>= 0.7504 S= 0.5002
 Generating alternative initial guess.
 ExpMin= 1.83D-01 ExpMax= 3.22D+02 ExpMxC= 3.22D+02 IAcc=1 IRadAn=         1 AccDes= 0.00D+00
 Harris functional with IExCor=  402 and IRadAn=       1 diagonalized for initial guess.
 HarFok:  IExCor=  402 AccDes= 0.00D+00 IRadAn=         1 IDoV= 1 UseB2=F ITyADJ=14
 ICtDFT=  3500011 ScaDFX=  1.000000  1.000000  1.000000  1.000000
 FoFCou: FMM=F IPFlag=           0 FMFlag=      100000 FMFlg1=           0
         NFxFlg=           0 DoJE=T BraDBF=F KetDBF=T FulRan=T
         wScrn=  0.000000 ICntrl=     500 IOpCl=  0 I1Cent=   200000004 NGrid=           0
         NMat0=    1 NMatS0=      1 NMatT0=    0 NMatD0=    1 NMtDS0=    0 NMtDT0=    0
 Symmetry not used in FoFCou.
 Harris En= -191.296971737890    
 Leave Link  401 at Thu Jan  7 02:13:56 2021, MaxMem=    33554432 cpu:         0.3
 (Enter /apps/applications/gaussian/G09.D01/2/default/g09/l508.exe)
 Direct SCF.
 Tight linear equation convergence will be used.
 UB3LYP wavefunction.
 Quadratic Convergence SCF Method.
 Line search only if initial step raises energy.
 Two-electron integral symmetry not used.
 ReadGW:  IGet=1 IStart=         402 Next=         402 LGW=           0.
 Keep R1 and R2 ints in memory in canonical form, NReq=2054730.
 FoFCou: FMM=F IPFlag=           0 FMFlag=           0 FMFlg1=           0
         NFxFlg=           0 DoJE=F BraDBF=F KetDBF=F FulRan=T
         wScrn=  0.000000 ICntrl=     600 IOpCl=  0 I1Cent=           0 NGrid=           0
         NMat0=    1 NMatS0=   1081 NMatT0=    0 NMatD0=    1 NMtDS0=    0 NMtDT0=    0
 Symmetry not used in FoFCou.
 Iteration   1 EE= -191.301750888215                                    Grad=8.761D-02 Max rot=    1.2388 deg.
 Gradient too large for Newton-Raphson -- use scaled steepest descent instead.
 Alpha Gap=     0.465 HL deriv= 2.23D-04
  Beta Gap=     0.461 HL deriv= 5.17D-04
     ILin= 1 X=0.000D+00 Y=-1.913017508882D+02 DE= 0.00D+00 F= -3.88D-03
     ILin= 2 X=3.000D-01 Y=-1.913027367658D+02 DE=-9.86D-04 F= -2.69D-03
     ILin= 3 X=6.000D-01 Y=-1.913033647163D+02 DE=-1.61D-03 F= -1.50D-03
     ILin= 4 X=1.200D+00 Y=-1.913035468615D+02 DE=-1.80D-03 F=  8.89D-04
     Accept linear search using points  3 and  4.
     An  expanding polynomial of degree  4 produced  0.9313
 Iteration   2 EE= -191.303642290040     Delta-E=       -0.001891401826 Grad=2.249D-02 Max rot=    0.2223 deg.
 Gradient too large for Newton-Raphson -- use scaled steepest descent instead.
 Alpha Gap=     0.465 HL deriv= 3.35D-04
  Beta Gap=     0.461 HL deriv= 6.48D-04
     ILin= 1 X=0.000D+00 Y=-1.913036422900D+02 DE= 0.00D+00 F= -6.68D-04
     ILin= 2 X=5.000D-01 Y=-1.913038522227D+02 DE=-2.10D-04 F= -1.72D-04
     ILin= 3 X=1.100D+00 Y=-1.913037766932D+02 DE=-1.34D-04 F=  4.24D-04
     An  expanding polynomial of degree  3 produced  0.6731
 Iteration   3 EE= -191.303867093354     Delta-E=       -0.000224803314 Grad=1.284D-02 Max rot=    0.1850 deg.
 Gradient too large for Newton-Raphson -- use scaled steepest descent instead.
 Alpha Gap=     0.465 HL deriv= 5.00D-05
  Beta Gap=     0.461 HL deriv= 1.35D-05
     ILin= 1 X=0.000D+00 Y=-1.913038670934D+02 DE= 0.00D+00 F= -2.30D-04
     ILin= 2 X=8.000D-01 Y=-1.913039442722D+02 DE=-7.72D-05 F=  3.71D-05
     Accept linear search using points  1 and  2.
     An  expanding polynomial of degree  2 produced  0.6345
 Iteration   4 EE= -191.303945838527     Delta-E=       -0.000078745173 Grad=8.069D-03 Max rot=    0.0860 deg.
 QCNR:  CnvC1=3.07D-09 CnvC2=3.07D-08
 LinEq1:  Iter=  0 NonCon=     1 RMS=4.01D-04 Max=5.50D-03 NDo=     1
 AX will form     1 AO Fock derivatives at one time.
 LinEq1:  Iter=  1 NonCon=     1 RMS=1.20D-04 Max=1.49D-03 NDo=     1
 LinEq1:  Iter=  2 NonCon=     1 RMS=7.61D-05 Max=8.83D-04 NDo=     1
 LinEq1:  Iter=  3 NonCon=     1 RMS=2.00D-05 Max=1.60D-04 NDo=     1
 LinEq1:  Iter=  4 NonCon=     1 RMS=1.44D-05 Max=1.41D-04 NDo=     1
 LinEq1:  Iter=  5 NonCon=     1 RMS=7.26D-06 Max=7.76D-05 NDo=     1
 LinEq1:  Iter=  6 NonCon=     1 RMS=2.80D-06 Max=2.15D-05 NDo=     1
 LinEq1:  Iter=  7 NonCon=     1 RMS=1.54D-06 Max=1.08D-05 NDo=     1
 LinEq1:  Iter=  8 NonCon=     1 RMS=6.22D-07 Max=4.43D-06 NDo=     1
 LinEq1:  Iter=  9 NonCon=     1 RMS=1.91D-07 Max=1.53D-06 NDo=     1
 LinEq1:  Iter= 10 NonCon=     1 RMS=1.01D-07 Max=1.20D-06 NDo=     1
 LinEq1:  Iter= 11 NonCon=     1 RMS=1.83D-08 Max=1.28D-07 NDo=     1
 LinEq1:  Iter= 12 NonCon=     1 RMS=3.31D-09 Max=2.77D-08 NDo=     1
 LinEq1:  Iter= 13 NonCon=     0 RMS=6.54D-10 Max=6.44D-09 NDo=     1
 Linear equations converged to 3.074D-09 3.074D-08 after    13 iterations.
 Angle between quadratic step and gradient=  43.13 degrees.
     ILin= 1 X=0.000D+00 Y=-1.913039458385D+02 DE= 0.00D+00 F= -1.67D-04
     ILin= 2 X=1.000D+00 Y=-1.913040293342D+02 DE=-8.35D-05 F=  3.03D-07
     Accept linear search using points  1 and  2.
     An  expanding polynomial of degree  2 produced  0.9982
     Minimum is close to point  2 DX= -1.81D-03 DF= -2.74D-10 DXR=  1.81D-03 DFR=  3.28D-06 which will be used.
 Iteration   5 EE= -191.304029334154     Delta-E=       -0.000083495627 Grad=4.994D-05 Max rot=    0.0005 deg.
 QCNR:  CnvC1=4.99D-10 CnvC2=4.99D-09
 LinEq1:  Iter=  0 NonCon=     1 RMS=2.44D-06 Max=2.71D-05 NDo=     1
 LinEq1:  Iter=  1 NonCon=     1 RMS=2.86D-06 Max=3.98D-05 NDo=     1
 LinEq1:  Iter=  2 NonCon=     1 RMS=1.63D-06 Max=1.32D-05 NDo=     1
 LinEq1:  Iter=  3 NonCon=     1 RMS=8.06D-07 Max=9.69D-06 NDo=     1
 LinEq1:  Iter=  4 NonCon=     1 RMS=4.56D-07 Max=6.41D-06 NDo=     1
 LinEq1:  Iter=  5 NonCon=     1 RMS=1.32D-07 Max=1.30D-06 NDo=     1
 LinEq1:  Iter=  6 NonCon=     1 RMS=3.60D-08 Max=2.68D-07 NDo=     1
 LinEq1:  Iter=  7 NonCon=     1 RMS=1.90D-08 Max=1.54D-07 NDo=     1
 LinEq1:  Iter=  8 NonCon=     1 RMS=8.28D-09 Max=7.83D-08 NDo=     1
 LinEq1:  Iter=  9 NonCon=     1 RMS=2.19D-09 Max=2.15D-08 NDo=     1
 LinEq1:  Iter= 10 NonCon=     0 RMS=4.28D-10 Max=3.19D-09 NDo=     1
 Linear equations converged to 4.994D-10 4.994D-09 after    10 iterations.
 Angle between quadratic step and gradient=  55.16 degrees.
     ILin= 1 X=0.000D+00 Y=-1.913040293342D+02 DE= 0.00D+00 F= -3.98D-09
     ILin= 2 X=1.000D+00 Y=-1.913040293361D+02 DE=-1.99D-09
 Iteration   6 EE= -191.304029336148     Delta-E=       -0.000000001993 Grad=4.173D-09 Max rot=    0.0000 deg.
 Rotation gradient small -- convergence achieved.
 SCF Done:  E(UB3LYP) =  -191.304029336     a.u. after    6 cycles
            Convg  =    0.4173D-08                    35 Fock formations.
              S**2 =  0.7503                  -V/T =  2.0088
 <Sx>= 0.0000 <Sy>= 0.0000 <Sz>= 0.5000 <S**2>= 0.7503 S= 0.5001
 <L.S>= 0.000000000000E+00
 Annihilation of the first spin contaminant:
 S**2 before annihilation     0.7503,   after     0.7500
 Leave Link  508 at Thu Jan  7 02:14:18 2021, MaxMem=    33554432 cpu:        22.4
 (Enter /apps/applications/gaussian/G09.D01/2/default/g09/l801.exe)
 DoSCS=F DFT=T ScalE2(SS,OS)=  1.000000  1.000000
 Range of M.O.s used for correlation:     1    46
 NBasis=    46 NAE=    16 NBE=    15 NFC=     0 NFV=     0
 NROrb=     46 NOA=    16 NOB=    15 NVA=    30 NVB=    31

 **** Warning!!: The largest alpha MO coefficient is  0.10160412D+02


 **** Warning!!: The largest beta MO coefficient is  0.10167187D+02

 Leave Link  801 at Thu Jan  7 02:14:18 2021, MaxMem=    33554432 cpu:         0.1
 (Enter /apps/applications/gaussian/G09.D01/2/default/g09/l1101.exe)
 Using compressed storage, NAtomX=     9.
 Will process     10 centers per pass.
 Leave Link 1101 at Thu Jan  7 02:14:19 2021, MaxMem=    33554432 cpu:         0.1
 (Enter /apps/applications/gaussian/G09.D01/2/default/g09/l1102.exe)
 Symmetrizing basis deriv contribution to polar:
 IMax=3 JMax=2 DiffMx= 0.00D+00
 Leave Link 1102 at Thu Jan  7 02:14:19 2021, MaxMem=    33554432 cpu:         0.0
 (Enter /apps/applications/gaussian/G09.D01/2/default/g09/l1110.exe)
 Forming Gx(P) for the SCF density, NAtomX=     9.
 Integral derivatives from FoFJK, PRISM(SPDF).
 Do as many integral derivatives as possible in FoFJK.
 G2DrvN: MDV=      33554256.
 G2DrvN: will do    10 centers at a time, making    1 passes.
 Calling FoFCou, ICntrl=  3107 FMM=F I1Cent=   0 AccDes= 0.00D+00.
 FoFJK:  IHMeth= 1 ICntrl=    3107 DoSepK=F KAlg= 0 I1Cent=   0 FoldK=F
 IRaf=         0 NMat=   1 IRICut=       1 DoRegI=T DoRafI=F ISym2E= 0.
 FoFCou: FMM=F IPFlag=           0 FMFlag=      100000 FMFlg1=           0
         NFxFlg=           0 DoJE=F BraDBF=F KetDBF=F FulRan=T
         wScrn=  0.000000 ICntrl=    3107 IOpCl=  1 I1Cent=           0 NGrid=           0
         NMat0=    1 NMatS0=      1 NMatT0=    0 NMatD0=    1 NMtDS0=    0 NMtDT0=    0
 Symmetry not used in FoFCou.
 End of G2Drv F.D. properties file   721 does not exist.
 End of G2Drv F.D. properties file   722 does not exist.
 End of G2Drv F.D. properties file   788 does not exist.
 Leave Link 1110 at Thu Jan  7 02:14:28 2021, MaxMem=    33554432 cpu:         9.5
 (Enter /apps/applications/gaussian/G09.D01/2/default/g09/l1002.exe)
 Minotr:  UHF open shell wavefunction.
          IDoAtm=111111111
          Direct CPHF calculation.
          Differentiating once with respect to electric field.
                with respect to dipole field.
          Differentiating once with respect to nuclear coordinates.
          Requested convergence is 1.0D-08 RMS, and 1.0D-07 maximum.
          Secondary convergence is 1.0D-12 RMS, and 1.0D-12 maximum.
          NewPWx=T KeepS1=F KeepF1=F KeepIn=T MapXYZ=F SortEE=F KeepMc=T.
          MDV=      33554246 using IRadAn=       2.
 Generate precomputed XC quadrature information.
 Keep R1 and R2 ints in memory in canonical form, NReq=2035820.
 FoFCou: FMM=F IPFlag=           0 FMFlag=           0 FMFlg1=           0
         NFxFlg=           0 DoJE=F BraDBF=F KetDBF=F FulRan=T
         wScrn=  0.000000 ICntrl=     600 IOpCl=  0 I1Cent=           0 NGrid=           0
         NMat0=    1 NMatS0=   1081 NMatT0=    0 NMatD0=    1 NMtDS0=    0 NMtDT0=    0
 Symmetry not used in FoFCou.
          Solving linear equations simultaneously, MaxMat=       0.
          There are    30 degrees of freedom in the 1st order CPHF.  IDoFFX=6 NUNeed=     3.
     27 vectors produced by pass  0 Test12= 3.15D-15 3.33D-09 XBig12= 1.04D+02 4.35D+00.
 AX will form    27 AO Fock derivatives at one time.
     27 vectors produced by pass  1 Test12= 3.15D-15 3.33D-09 XBig12= 3.46D+01 1.44D+00.
     27 vectors produced by pass  2 Test12= 3.15D-15 3.33D-09 XBig12= 1.85D-01 8.03D-02.
     27 vectors produced by pass  3 Test12= 3.15D-15 3.33D-09 XBig12= 1.97D-04 2.04D-03.
     27 vectors produced by pass  4 Test12= 3.15D-15 3.33D-09 XBig12= 5.29D-07 1.59D-04.
     21 vectors produced by pass  5 Test12= 3.15D-15 3.33D-09 XBig12= 9.75D-10 4.96D-06.
      5 vectors produced by pass  6 Test12= 3.15D-15 3.33D-09 XBig12= 2.17D-12 2.69D-07.
      1 vectors produced by pass  7 Test12= 3.15D-15 3.33D-09 XBig12= 6.10D-15 1.18D-08.
 InvSVY:  IOpt=1 It=  1 EMax= 5.33D-15
 Solved reduced A of dimension   162 with    30 vectors.
 FullF1:  Do perturbations    1 to     3.
 Isotropic polarizability for W=    0.000000       31.06 Bohr**3.
 End of Minotr F.D. properties file   721 does not exist.
 End of Minotr F.D. properties file   722 does not exist.
 End of Minotr F.D. properties file   788 does not exist.
 Leave Link 1002 at Thu Jan  7 02:14:37 2021, MaxMem=    33554432 cpu:         8.1
 (Enter /apps/applications/gaussian/G09.D01/2/default/g09/l701.exe)
 Compute integral second derivatives.
 ... and contract with generalized density number  0.
 Leave Link  701 at Thu Jan  7 02:14:37 2021, MaxMem=    33554432 cpu:         0.1
 (Enter /apps/applications/gaussian/G09.D01/2/default/g09/l702.exe)
 L702 exits ... SP integral derivatives will be done elsewhere.
 Leave Link  702 at Thu Jan  7 02:14:37 2021, MaxMem=    33554432 cpu:         0.0
 (Enter /apps/applications/gaussian/G09.D01/2/default/g09/l703.exe)
 Compute integral second derivatives, UseDBF=F ICtDFT=           0.
 Integral derivatives from FoFJK, PRISM(SPDF).
 Calling FoFJK, ICntrl=    100127 FMM=F ISym2X=0 I1Cent= 0 IOpClX= 1 NMat=1 NMatS=1 NMatT=0.
 FoFJK:  IHMeth= 1 ICntrl=  100127 DoSepK=F KAlg= 0 I1Cent=   0 FoldK=F
 IRaf=         0 NMat=   1 IRICut=       1 DoRegI=T DoRafI=F ISym2E= 0.
 FoFCou: FMM=F IPFlag=           0 FMFlag=      100000 FMFlg1=         800
         NFxFlg=           0 DoJE=F BraDBF=F KetDBF=F FulRan=T
         wScrn=  0.000000 ICntrl=  100127 IOpCl=  1 I1Cent=           0 NGrid=           0
         NMat0=    1 NMatS0=      1 NMatT0=    0 NMatD0=    1 NMtDS0=    0 NMtDT0=    0
 Symmetry not used in FoFCou.
 Leave Link  703 at Thu Jan  7 02:14:45 2021, MaxMem=    33554432 cpu:         8.1
 (Enter /apps/applications/gaussian/G09.D01/2/default/g09/l716.exe)
 Dipole        =-2.66311589D-01-4.78865247D-01 4.54121226D-01
 Polarizability= 4.94777260D+01-6.22470168D+00 2.02107612D+01
                 9.82826492D+00-1.25849386D+00 2.34937003D+01
 -------------------------------------------------------------------
 Center     Atomic                   Forces (Hartrees/Bohr)
 Number     Number              X              Y              Z
 -------------------------------------------------------------------
      1        6           0.005168387   -0.000756508    0.002023266
      2        6          -0.005765024    0.000590040   -0.002596826
      3        1           0.000065882   -0.000568329   -0.000375117
      4        1          -0.000427219   -0.000059134    0.000797945
      5        1          -0.000268512    0.000736670   -0.000421114
      6        6           0.006944953   -0.001155366    0.001075197
      7        1          -0.000652755    0.001879766    0.002712429
      8        8          -0.005454366   -0.002019634   -0.002045687
      9        1           0.000388654    0.001352495   -0.001170092
 -------------------------------------------------------------------
 Cartesian Forces:  Max     0.006944953 RMS     0.002561768
 Force constants in Cartesian coordinates: 
                1             2             3             4             5 
      1  0.507157D+00
      2  0.544298D-02  0.531901D+00
      3 -0.792233D-02  0.149319D-02  0.529042D+00
      4 -0.236704D+00  0.321204D-01 -0.747260D-01  0.119626D+01
      5  0.348608D-01 -0.721926D-01  0.190831D-01 -0.239163D+00  0.155659D+00
      6 -0.759252D-01  0.181981D-01 -0.989633D-01  0.492122D+00 -0.116264D+00
      7 -0.592360D-01 -0.391627D-01 -0.385260D-01 -0.191966D-01 -0.207984D-01
      8 -0.382617D-01 -0.167060D+00 -0.119322D+00  0.376732D-03  0.847796D-02
      9 -0.377612D-01 -0.119897D+00 -0.167528D+00 -0.102494D-01 -0.419643D-02
     10 -0.166858D+00 -0.425973D-02  0.126660D+00 -0.343973D-01  0.973980D-03
     11 -0.427037D-02 -0.467581D-01  0.359941D-02  0.709626D-02 -0.225562D-02
     12  0.125494D+00  0.402031D-02 -0.179057D+00 -0.135660D-01 -0.981048D-03
     13 -0.468237D-01  0.137116D-02 -0.105769D-02 -0.844052D-02  0.339351D-01
     14  0.477633D-03 -0.254504D+00  0.966100D-01  0.697429D-02 -0.273717D-02
     15 -0.982161D-03  0.968125D-01 -0.919909D-01 -0.456257D-02  0.116579D-01
     16 -0.745315D-03  0.389114D-02 -0.116488D-02 -0.889808D+00  0.184765D+00
     17  0.148271D-02  0.277380D-02 -0.192925D-02  0.182841D+00 -0.988937D-01
     18 -0.137242D-02 -0.580147D-04  0.375729D-02 -0.381252D+00  0.885073D-01
     19  0.143807D-03  0.786277D-04  0.832816D-04 -0.237753D-02  0.892207D-03
     20 -0.971920D-04 -0.514454D-04  0.463791D-04  0.157560D-02 -0.508319D-03
     21  0.168365D-04  0.441319D-05  0.546513D-04  0.489128D-04 -0.196328D-03
     22  0.306064D-02 -0.118888D-02 -0.197237D-02 -0.108553D-01  0.675969D-02
     23 -0.432149D-04  0.487144D-02  0.977689D-03  0.720917D-02  0.136290D-01
     24 -0.207556D-02 -0.122707D-02  0.569199D-02 -0.627337D-02  0.184688D-02
     25  0.495165D-05  0.170696D-02 -0.137447D-02  0.552073D-02 -0.222560D-02
     26  0.408297D-03  0.101980D-02 -0.558511D-03  0.969324D-03 -0.117844D-02
     27  0.528465D-03  0.653923D-03 -0.100710D-02 -0.154130D-02  0.542609D-03
                6             7             8             9            10 
      6  0.327532D+00
      7 -0.272999D-01  0.725027D-01
      8  0.832493D-02  0.421382D-01  0.181522D+00
      9 -0.112499D-01  0.483400D-01  0.132510D+00  0.185128D+00
     10  0.168872D-01  0.622026D-02  0.882024D-03 -0.548586D-02  0.193421D+00
     11 -0.451280D-02  0.178486D-01 -0.357810D-04 -0.180598D-01  0.273403D-02
     12  0.141558D-01  0.166084D-01  0.171997D-02 -0.182209D-01 -0.137108D+00
     13 -0.184966D-01 -0.758128D-03 -0.655042D-02  0.443578D-02  0.406923D-03
     14  0.288187D-02 -0.665716D-03 -0.224880D-01  0.105320D-01 -0.881088D-03
     15 -0.961561D-02  0.849017D-03 -0.229243D-01  0.110560D-01 -0.286782D-03
     16 -0.377712D+00  0.288369D-02  0.117339D-02  0.202566D-02  0.179580D-02
     17  0.870159D-01 -0.125208D-02 -0.161852D-03 -0.165817D-02  0.745990D-04
     18 -0.231374D+00  0.392714D-03 -0.271526D-03  0.110180D-02  0.160614D-02
     19 -0.633484D-03  0.113033D-03 -0.718900D-04  0.242316D-04  0.461398D-04
     20  0.765875D-04 -0.585919D-04  0.379186D-04 -0.264260D-04 -0.469412D-04
     21 -0.574246D-03 -0.222110D-04  0.138541D-04 -0.250549D-05 -0.303793D-04
     22 -0.125020D-01 -0.284115D-02  0.281740D-03 -0.145346D-02 -0.116376D-02
     23  0.262603D-02  0.202794D-02 -0.920105D-04  0.505099D-03  0.150442D-03
     24  0.107548D-01 -0.833376D-04  0.916967D-04 -0.407228D-03 -0.275586D-02
     25  0.355952D-02  0.312206D-03  0.319278D-04  0.124268D-03  0.528609D-03
     26  0.165333D-02 -0.772583D-04 -0.199501D-03  0.290699D-03  0.372685D-03
     27 -0.666508D-03 -0.258669D-03 -0.142984D-03  0.122575D-03  0.513032D-03
               11            12            13            14            15 
     11  0.488002D-01
     12 -0.504722D-02  0.196283D+00
     13 -0.233536D-01  0.962636D-02  0.571414D-01
     14 -0.733378D-03 -0.461916D-03 -0.431568D-02  0.280452D+00
     15  0.236279D-01 -0.116624D-01  0.541309D-02 -0.109364D+00  0.101153D+00
     16 -0.343359D-03 -0.122930D-02  0.678713D-03 -0.237993D-02  0.432600D-03
     17  0.102201D-02  0.629852D-03 -0.146374D-03  0.105064D-04  0.593735D-03
     18 -0.355220D-03 -0.555462D-03  0.405123D-03 -0.641101D-03  0.107903D-02
     19 -0.658608D-04  0.265418D-04  0.563088D-04 -0.339549D-04  0.000000D+00
     20  0.532714D-04 -0.338261D-04 -0.451093D-04  0.278183D-04 -0.205770D-04
     21  0.230862D-04 -0.656476D-05 -0.378396D-04  0.196980D-04 -0.563101D-05
     22  0.556143D-03  0.358584D-04 -0.200784D-02  0.103607D-02 -0.679102D-03
     23  0.194606D-03  0.244427D-04 -0.525383D-03 -0.126990D-03 -0.355206D-03
     24  0.828231D-03 -0.111993D-02  0.185853D-03  0.212781D-03 -0.561336D-04
     25 -0.201756D-03  0.112570D-03 -0.253110D-03 -0.211621D-03 -0.184533D-03
     26 -0.287180D-03  0.129441D-03 -0.369596D-03  0.988086D-04 -0.278824D-04
     27 -0.103593D-03  0.182843D-03 -0.474108D-03  0.210724D-03  0.424997D-04
               16            17            18            19            20 
     16  0.130987D+01
     17 -0.244250D+00  0.157344D+00
     18  0.527634D+00 -0.126998D+00  0.342634D+00
     19  0.367029D-02 -0.153625D-02  0.651988D-03 -0.813322D-03
     20 -0.591024D-03 -0.105687D-03 -0.479692D-03 -0.553269D-03  0.170695D-02
     21  0.291285D-02 -0.226557D-02 -0.829534D-04 -0.123751D-02  0.364348D-02
     22 -0.374034D+00  0.763594D-01 -0.155156D+00 -0.819790D-03 -0.246068D-03
     23  0.366221D-01 -0.652093D-01  0.425212D-01  0.150214D-02 -0.122938D-02
     24 -0.118707D+00  0.528566D-01 -0.119499D+00  0.131800D-02 -0.331659D-02
     25 -0.543108D-01 -0.135727D-01  0.709123D-02 -0.189428D-04  0.625967D-04
     26  0.211131D-01  0.322054D-02 -0.222483D-02 -0.211748D-03  0.688681D-04
     27 -0.341923D-01 -0.824498D-02  0.293852D-02 -0.233494D-03  0.110665D-03
               21            22            23            24            25 
     21  0.404525D-02
     22 -0.156015D-02  0.616901D+00
     23 -0.104494D-02  0.721387D-01  0.147806D+00
     24 -0.336411D-02  0.193436D-01 -0.148999D+00  0.210248D+00
     25 -0.905206D-04 -0.228240D+00 -0.119082D+00  0.109048D+00  0.276456D+00
     26 -0.197685D-03 -0.155697D+00 -0.998438D-01  0.977061D-01  0.133492D+00
     27 -0.638974D-04  0.153944D+00  0.103744D+00 -0.102249D+00 -0.118286D+00
               26            27 
     26  0.971009D-01
     27 -0.967707D-01  0.100700D+00
 Leave Link  716 at Thu Jan  7 02:14:45 2021, MaxMem=    33554432 cpu:         0.1
 (Enter /apps/applications/gaussian/G09.D01/2/default/g09/l103.exe)

 GradGradGradGradGradGradGradGradGradGradGradGradGradGradGradGradGradGrad
 Berny optimization.
 Search for a saddle point.
 Step number   2 out of a maximum of  100
 All quantities printed in internal units (Hartrees-Bohrs-Radians)
 Swapping is turned off.
 Second derivative matrix not updated -- analytic derivatives used.
 ITU=  0  0
     Eigenvalues ---   -0.00176  -0.00012   0.00089   0.00809   0.00827
     Eigenvalues ---    0.01038   0.04384   0.08266   0.08777   0.10869
     Eigenvalues ---    0.11585   0.14737   0.17294   0.21501   0.26047
     Eigenvalues ---    0.50645   0.68832   0.72006   0.72400   0.93413
     Eigenvalues ---    2.70240
 Eigenvectors required to have negative eigenvalues:
                          X7        Y7        Z7        Y9        Z8
   1                    0.80324  -0.34956   0.29738   0.18042  -0.16906
                          Y8        Y3        X3        Y5        X1
   1                   -0.11408   0.08907  -0.08015   0.07829  -0.07334
 Eigenvalue     2 is  -1.23D-04 should be greater than     0.000000 Eigenvector:
                          Y7        Y4        X7        Z5        Z3
   1                    0.46148   0.42986   0.35833  -0.35797   0.30182
                          Z7        Y3        X3        Y9        Y5
   1                   -0.23744  -0.23311  -0.20509  -0.18629  -0.16993
 RFO step:  Lambda0=7.916016842D-06 Lambda=-1.62583050D-03.
 Linear search not attempted -- option 19 set.
 Maximum step size (   0.300) exceeded in Quadratic search.
    -- Step size scaled by   0.356
 TrRot=  0.069268  0.005318  0.044590  3.119686  0.002852 -3.119286
 Variable       Old X    -DE/DX   Delta X   Delta X   Delta X     New X
                                 (Linear)    (Quad)   (Total)
    X1      -17.12098   0.00517   0.00000   0.00934   0.01589 -17.10508
    Y1        5.26552  -0.00076   0.00000  -0.00146  -0.00167   5.26385
    Z1       21.28393   0.00202   0.00000  -0.00090  -0.00552  21.27841
    X2      -19.59432  -0.00577   0.00000   0.00961   0.01908 -19.57524
    Y2        5.78551   0.00059   0.00000   0.00401   0.00273   5.78824
    Z2       20.20317  -0.00260   0.00000  -0.01268  -0.02438  20.17879
    X3      -16.61114   0.00007   0.00000   0.05171   0.05377 -16.55737
    Y3        6.66977  -0.00057   0.00000   0.05653   0.05662   6.72639
    Z3       22.72560  -0.00038   0.00000  -0.07374  -0.07688  22.64872
    X4      -15.65489  -0.00043   0.00000  -0.00062   0.01018 -15.64471
    Y4        5.30366  -0.00006   0.00000  -0.10931  -0.10903   5.19463
    Z4       19.81350   0.00080   0.00000  -0.01200  -0.01246  19.80105
    X5      -17.06390  -0.00027   0.00000  -0.03281  -0.02833 -17.09223
    Y5        3.39079   0.00074   0.00000   0.04143   0.04128   3.43207
    Z5       22.17459  -0.00042   0.00000   0.08965   0.08519  22.25977
    X6      -21.62189   0.00694   0.00000   0.01470   0.02667 -21.59522
    Y6        6.24832  -0.00116   0.00000   0.00089  -0.00125   6.24707
    Z6       19.27352   0.00108   0.00000  -0.02387  -0.04136  19.23216
    X7      -23.62442  -0.00065   0.00000  -0.14079  -0.13901 -23.76344
    Y7        9.16914   0.00188   0.00000  -0.04933  -0.05214   9.11700
    Z7       22.27061   0.00271   0.00000   0.15313   0.12929  22.39990
    X8      -23.82293  -0.00545   0.00000   0.01408   0.02896 -23.79397
    Y8        6.80618  -0.00202   0.00000  -0.00980  -0.01289   6.79328
    Z8       18.19142  -0.00205   0.00000  -0.03449  -0.05829  18.13313
    X9      -25.24621   0.00039   0.00000   0.00024   0.01280 -25.23341
[...]
 Rotational               0.889              2.981             23.977
 Vibrational             41.044             13.327             15.107
 Vibration     1          0.594              1.983              5.666
 Vibration     2          0.628              1.870              2.351
 Vibration     3          0.650              1.801              1.907
 Vibration     4          0.652              1.796              1.881
 Vibration     5          0.662              1.765              1.741
 Vibration     6          0.893              1.167              0.570
 Vibration     7          0.918              1.112              0.519
                       Q            Log10(Q)             Ln(Q)
 Total Bot       0.216020D-14        -14.665505        -33.768574
 Total V=0       0.608892D+14         13.784540         31.740077
 Vib (Bot)       0.164481D-26        -26.783884        -61.672172
 Vib (Bot)    1  0.635340D+01          0.803006          1.848990
 Vib (Bot)    2  0.113033D+01          0.053205          0.122508
 Vib (Bot)    3  0.871240D+00         -0.059862         -0.137838
 Vib (Bot)    4  0.857610D+00         -0.066710         -0.153606
 Vib (Bot)    5  0.785670D+00         -0.104760         -0.241218
 Vib (Bot)    6  0.295271D+00         -0.529779         -1.219862
 Vib (Bot)    7  0.275624D+00         -0.559683         -1.288717
 Vib (V=0)       0.463620D+02          1.666162          3.836479
 Vib (V=0)    1  0.687304D+01          0.837149          1.927607
 Vib (V=0)    2  0.173598D+01          0.239544          0.551571
 Vib (V=0)    3  0.150452D+01          0.177398          0.408473
 Vib (V=0)    4  0.149272D+01          0.173979          0.400601
 Vib (V=0)    5  0.143128D+01          0.155724          0.358567
 Vib (V=0)    6  0.108068D+01          0.033696          0.077587
 Vib (V=0)    7  0.107094D+01          0.029764          0.068534
 Electronic      0.200000D+01          0.301030          0.693147
 Translational   0.169300D+08          7.228656         16.644596
 Rotational      0.387875D+05          4.588692         10.565854
 
                                                    Gaussian input prepared by AS
 E
                                                             IR Spectrum
 
     3          33 3                      2                               11 1     1    1 11                                         
     4          00 0                      4                               55 4     3    1 11             7     55         222 1      
     0          98 3                      3                               55 7     3    9 10             4     63         432 7    3 
     5          17 6                      7                               73 7     1    3 17             9     38         906 8    3 
 
     X          XX X                      X                               XX X     X    X XX             X     XX         XXX X    X 
     X           X X                      X                                        X    X                X                    X      
     X             X                      X                                             X                                     X      
     X                                    X                                             X                                     X      
     X                                    X                                             X                                     X      
     X                                    X                                             X                                     X      
                                          X                                             X                                     X      
                                                                                        X                                     X      
                                                                                        X                                     X      
                                                                                        X                                     X      
                                                                                        X                                     X      
                                                                                        X                                     X      
                                                                                        X                                     X      
                                                                                        X                                     X      
                                                                                        X                                     X      
                                                                                        X                                     X      
                                                                                        X                                     X      
                                                                                        X                                            
                                                                                        X                                            
                                                                                        X                                            
 
 -------------------------------------------------------------------
 Center     Atomic                   Forces (Hartrees/Bohr)
 Number     Number              X              Y              Z
 -------------------------------------------------------------------
      1        6           0.000000683    0.000001949   -0.000001203
      2        6           0.000000085    0.000000092   -0.000000157
      3        1           0.000000142    0.000000933   -0.000001072
      4        1           0.000000233    0.000000860   -0.000000470
      5        1           0.000001080    0.000001242   -0.000000266
      6        6          -0.000000683   -0.000001451    0.000000665
      7        1           0.000000562    0.000001006    0.000000004
      8        8          -0.000001735   -0.000003741    0.000001883
      9        1          -0.000000367   -0.000000891    0.000000616
 -------------------------------------------------------------------
 Cartesian Forces:  Max     0.000003741 RMS     0.000001183
 Force constants in Cartesian coordinates: 
                1             2             3             4             5 
      1  0.497194D+00
      2  0.847264D-02  0.536695D+00
      3 -0.164198D-01  0.316914D-02  0.531223D+00
      4 -0.220265D+00  0.294824D-01 -0.754702D-01  0.116282D+01
      5  0.290355D-01 -0.692655D-01  0.120826D-01 -0.193773D+00  0.132624D+00
      6 -0.763758D-01  0.124610D-01 -0.106106D+00  0.529137D+00 -0.913266D-01
      7 -0.821967D-01 -0.831129D-01 -0.331905D-01 -0.233311D-01 -0.248927D-01
      8 -0.818080D-01 -0.236027D+00 -0.759102D-01  0.157323D-02  0.116095D-01
      9 -0.332605D-01 -0.762833D-01 -0.784287D-01 -0.989412D-02 -0.106520D-01
     10 -0.148157D+00  0.615301D-01  0.110494D+00 -0.311264D-01  0.133474D-01
     11  0.612213D-01 -0.832172D-01 -0.662691D-01  0.544124D-02 -0.437429D-02
     12  0.109217D+00 -0.658968D-01 -0.164618D+00 -0.132177D-01  0.839302D-02
     13 -0.490719D-01 -0.165113D-01  0.188513D-01 -0.522947D-02  0.242335D-01
     14 -0.176422D-01 -0.155881D+00  0.124792D+00  0.591874D-02 -0.284973D-02
     15  0.196537D-01  0.124965D+00 -0.191722D+00 -0.676390D-02  0.732248D-02
     16 -0.964897D-03  0.493839D-03 -0.417737D-03 -0.876472D+00  0.147941D+00
     17  0.396905D-03  0.207867D-02  0.117230D-02  0.147569D+00 -0.821377D-01
     18 -0.167252D-02  0.142122D-02  0.513537D-02 -0.412633D+00  0.726128D-01
     19  0.237221D-04 -0.584378D-05 -0.529997D-04 -0.136714D-02  0.202481D-03
     20 -0.240081D-04  0.421862D-04  0.323571D-04  0.667617D-03 -0.142001D-03
     21 -0.808415D-04  0.311922D-04  0.692580D-04  0.780972D-03 -0.115890D-03
     22  0.345274D-02 -0.359646D-03 -0.200188D-02 -0.971155D-02  0.464888D-02
     23 -0.216263D-03  0.395941D-02  0.887469D-03  0.526861D-02  0.151059D-01
     24 -0.116003D-02  0.809571D-03  0.493875D-02 -0.107166D-01  0.160404D-02
     25 -0.143637D-04  0.107262D-04 -0.179254D-02  0.468112D-02 -0.744004D-03
     26  0.564151D-03  0.161552D-02  0.434189D-04 -0.214871D-02 -0.569889D-03
     27  0.991238D-04 -0.677542D-03 -0.490674D-03 -0.122216D-02  0.795523D-04
                6             7             8             9            10 
      6  0.374190D+00
      7 -0.162889D-01  0.978350D-01
      8  0.316839D-02  0.909569D-01  0.257965D+00
      9 -0.934133D-02  0.422152D-01  0.845327D-01  0.858315D-01
     10  0.159720D-01  0.946515D-02 -0.467259D-02 -0.936969D-02  0.171185D+00
     11 -0.835260D-03  0.199386D-01 -0.121472D-01 -0.210551D-01 -0.703617D-01
     12  0.133652D-01  0.739818D-02 -0.356883D-02 -0.923046D-02 -0.118580D+00
     13 -0.306559D-01 -0.197732D-02 -0.753507D-02  0.108618D-01 -0.230766D-02
     14  0.305595D-02 -0.348915D-02 -0.202803D-01  0.235143D-01  0.450849D-03
     15 -0.130418D-01 -0.303329D-03 -0.856722D-02  0.101321D-01  0.266384D-02
     16 -0.411941D+00  0.242720D-02  0.142554D-02  0.283282D-03  0.123029D-02
     17  0.722880D-01 -0.113682D-02 -0.783758D-03 -0.814552D-03  0.148070D-03
     18 -0.267429D+00  0.121303D-02  0.502883D-03  0.130433D-02  0.908480D-03
     19 -0.768777D-03  0.604211D-04  0.355499D-05  0.529861D-04  0.528767D-04
     20  0.391227D-03 -0.133862D-04 -0.283100D-05 -0.178288D-04 -0.278136D-04
     21  0.424334D-03  0.105732D-04  0.410876D-05 -0.218788D-04 -0.237510D-04
     22 -0.125911D-01 -0.245245D-02 -0.624276D-04 -0.906949D-03 -0.928115D-03
     23  0.233770D-02  0.148292D-02 -0.180681D-03  0.385738D-03 -0.135536D-03
     24  0.975771D-02 -0.637087D-03 -0.173523D-03 -0.127837D-03 -0.231344D-02
     25  0.351205D-02  0.169800D-03  0.118883D-03  0.179334D-04  0.586462D-03
     26 -0.154046D-02  0.266596D-03 -0.152458D-03  0.390094D-03 -0.278799D-03
     27 -0.181896D-02 -0.417175D-03  0.117023D-04 -0.117653D-03  0.247853D-03
               11            12            13            14            15 
     11  0.896592D-01
     12  0.726223D-01  0.180684D+00
     13 -0.159974D-01  0.163859D-01  0.596438D-01
     14  0.896464D-02 -0.111804D-01  0.161565D-01  0.169536D+00
     15  0.158863D-01 -0.185817D-01 -0.159090D-01 -0.140317D+00  0.212440D+00
     16 -0.391874D-03 -0.140589D-02  0.170436D-02 -0.229966D-02  0.203048D-02
     17  0.980471D-03 -0.101483D-04  0.197082D-03  0.414573D-03  0.907316D-03
     18 -0.701215D-03 -0.614401D-03  0.713049D-03 -0.293241D-03  0.996505D-03
     19 -0.785246D-05  0.508630D-04  0.494879D-04 -0.133696D-04  0.525536D-04
     20 -0.607180D-05 -0.233618D-04 -0.184714D-04 -0.466251D-05 -0.263160D-04
     21  0.420467D-05 -0.294283D-04  0.614524D-05 -0.144216D-04 -0.120905D-04
     22  0.398051D-03 -0.630038D-04 -0.266547D-02  0.111687D-02 -0.131573D-02
     23  0.416709D-03 -0.354075D-03 -0.856775D-04  0.661083D-04  0.183960D-03
     24  0.317158D-03 -0.100063D-02 -0.120775D-03  0.252903D-03 -0.244467D-03
     25 -0.240270D-03  0.214643D-03 -0.145788D-03 -0.198538D-03 -0.108698D-03
     26 -0.276235D-03  0.182575D-04 -0.439160D-03  0.344308D-04 -0.355415D-03
     27  0.307560D-04  0.256422D-04 -0.132619D-03  0.189409D-03  0.333778D-04
               16            17            18            19            20 
     16  0.128027D+01
     17 -0.222888D+00  0.141466D+00
     18  0.560469D+00 -0.964754D-01  0.392070D+00
     19  0.212398D-02 -0.614292D-03  0.425395D-03 -0.265363D-03
     20 -0.113940D-02  0.170698D-03 -0.272187D-03  0.769194D-04  0.262488D-03
     21 -0.132996D-02  0.305199D-03 -0.567742D-03 -0.170319D-03  0.582318D-03
     22 -0.359572D+00  0.559133D-01 -0.162342D+00 -0.152128D-03  0.513889D-03
     23  0.710856D-01 -0.590215D-01  0.248866D-01  0.194000D-03 -0.540396D-04
     24 -0.111885D+00  0.819059D-02 -0.138769D+00  0.684040D-04 -0.882093D-03
     25 -0.507498D-01  0.204143D-01  0.129189D-01 -0.525857D-03 -0.353500D-04
     26  0.577255D-02 -0.316749D-02 -0.168154D-02  0.164403D-03 -0.265767D-03
     27 -0.358041D-01  0.144367D-01  0.787399D-02  0.341895D-03  0.215884D-03
               21            22            23            24            25 
     21  0.187063D-02
     22  0.114516D-02  0.553287D+00
     23 -0.123939D-02 -0.176587D+00  0.107159D+00
     24 -0.251019D-02 -0.379520D-02  0.871539D-01  0.308409D+00
     25 -0.337985D-03 -0.181259D+00  0.989935D-01  0.130559D+00  0.227257D+00
     26  0.442683D-03  0.114418D+00 -0.674511D-01 -0.972725D-01 -0.118319D+00
     27  0.777101D-03  0.181871D+00 -0.114242D+00 -0.180454D+00 -0.144984D+00
               26            27 
     26  0.702330D-01
     27  0.999555D-01  0.174171D+00
 Leave Link  716 at Thu Jan  7 02:26:41 2021, MaxMem=    33554432 cpu:         0.1
 (Enter /apps/applications/gaussian/G09.D01/2/default/g09/l9999.exe)
 1\1\GINC-DC1S0B3B\Freq\UB3LYP\3-21G\C3H5O1(2)\CHMRSH\07-Jan-2021\0\\#P
  b3lyp/3-21G scf=qc opt(calcall, ts, noeigentest, cartesian,maxcycle=1
 00) NoSymm\\Gaussian input prepared by ASE\\0,2\C,-9.038363485,2.81357
 91328,11.2569982502\C,-10.3375360093,3.0542709896,10.6289114177\H,-8.6
 05174754,3.7427248886,11.6481137553\H,-8.3317357954,2.3969695786,10.52
 82125123\H,-9.1207846563,2.1010244946,12.0873073751\C,-11.3981426613,3
 .2425936605,10.0890889022\H,-12.8293410504,4.3526158331,12.2316687326\
 O,-12.5633070582,3.4412839955,9.4686404767\H,-13.2311071559,3.84862171
 77,10.0887846932\\Version=ES64L-G09RevD.01\HF=-191.3062245\S2=0.750182
 \S2-1=0.\S2A=0.75\RMSD=0.000e+00\RMSF=1.183e-06\ZeroPoint=0.0618524\Th
 ermal=0.0682403\Dipole=-0.2126944,0.2657646,0.6471144\DipoleDeriv=0.18
 65525,-0.0063277,0.0667148,0.0021848,0.1057977,-0.0201115,0.0984714,-0
 .0308318,0.120764,-0.1802422,-0.0372935,-0.0523616,-0.0132802,-0.23859
 56,0.0281895,0.0346925,0.0008005,-0.2134479,-0.0160786,-0.0507412,-0.0
 670726,-0.0751784,-0.0492193,-0.063355,-0.0859139,-0.0505227,0.0509164
 ,-0.0598031,0.0667448,0.0489455,0.0677561,0.0771404,-0.0420291,0.05212
 92,-0.0430359,0.0083603,0.0214832,0.0024952,-0.0215858,0.014069,0.0072
 711,0.1130485,-0.0528468,0.1160434,-0.0456091,0.7548346,-0.1070219,0.3
 823603,-0.0940116,0.0807744,-0.1293861,0.4209237,-0.1429079,0.0773491,
 0.0497865,-0.0285632,-0.0455666,-0.022393,0.0147814,0.010988,-0.024511
 4,0.0039591,-0.0097062,-1.0901098,0.1226431,-0.3387404,0.0609662,-0.38
 80533,0.1489043,-0.5434109,0.2174536,-0.2878075,0.3335771,0.0380644,0.
 0273065,0.059887,0.3901033,-0.0462486,0.1004662,-0.0709583,0.2991809\P
 olar=47.706422,-7.3480724,18.4396105,10.254584,-0.4246635,26.0436998\P
 G=C01 [X(C3H5O1)]\NImag=1\\0.49719357,0.00847264,0.53669537,-0.0164198
 4,0.00316914,0.53122255,-0.22026482,0.02948236,-0.07547021,1.16282131,
 0.02903553,-0.06926546,0.01208255,-0.19377253,0.13262368,-0.07637578,0
 .01246102,-0.10610614,0.52913714,-0.09132659,0.37419021,-0.08219667,-0
 .08311293,-0.03319047,-0.02333108,-0.02489271,-0.01628891,0.09783495,-
 0.08180804,-0.23602701,-0.07591024,0.00157323,0.01160949,0.00316839,0.
 09095693,0.25796474,-0.03326048,-0.07628333,-0.07842873,-0.00989412,-0
 .01065201,-0.00934133,0.04221519,0.08453273,0.08583146,-0.14815739,0.0
 6153010,0.11049435,-0.03112640,0.01334745,0.01597202,0.00946515,-0.004
 67259,-0.00936969,0.17118478,0.06122130,-0.08321722,-0.06626913,0.0054
 4124,-0.00437429,-0.00083526,0.01993857,-0.01214717,-0.02105510,-0.070
 36173,0.08965917,0.10921663,-0.06589676,-0.16461821,-0.01321766,0.0083
 9302,0.01336522,0.00739818,-0.00356883,-0.00923046,-0.11857966,0.07262
 227,0.18068398,-0.04907189,-0.01651126,0.01885132,-0.00522947,0.024233
 50,-0.03065592,-0.00197732,-0.00753507,0.01086185,-0.00230766,-0.01599
 743,0.01638590,0.05964376,-0.01764221,-0.15588145,0.12479213,0.0059187
 4,-0.00284973,0.00305595,-0.00348915,-0.02028033,0.02351426,0.00045085
 ,0.00896464,-0.01118038,0.01615648,0.16953642,0.01965373,0.12496548,-0
 .19172217,-0.00676390,0.00732248,-0.01304176,-0.00030333,-0.00856722,0
 .01013210,0.00266384,0.01588631,-0.01858171,-0.01590895,-0.14031661,0.
 21244022,-0.00096490,0.00049384,-0.00041774,-0.87647198,0.14794141,-0.
 41194074,0.00242720,0.00142554,0.00028328,0.00123029,-0.00039187,-0.00
 140589,0.00170436,-0.00229966,0.00203048,1.28027239,0.00039691,0.00207
 867,0.00117230,0.14756944,-0.08213773,0.07228802,-0.00113682,-0.000783
 76,-0.00081455,0.00014807,0.00098047,-0.00001015,0.00019708,0.00041457
 ,0.00090732,-0.22288799,0.14146609,-0.00167252,0.00142122,0.00513537,-
 0.41263345,0.07261284,-0.26742927,0.00121303,0.00050288,0.00130433,0.0
 0090848,-0.00070121,-0.00061440,0.00071305,-0.00029324,0.00099651,0.56
 046924,-0.09647540,0.39207042,0.00002372,-0.00000584,-0.00005300,-0.00
 136714,0.00020248,-0.00076878,0.00006042,0.00000355,0.00005299,0.00005
 288,-0.00000785,0.00005086,0.00004949,-0.00001337,0.00005255,0.0021239
 8,-0.00061429,0.00042540,-0.00026536,-0.00002401,0.00004219,0.00003236
 ,0.00066762,-0.00014200,0.00039123,-0.00001339,-0.00000283,-0.00001783
 ,-0.00002781,-0.00000607,-0.00002336,-0.00001847,-0.00000466,-0.000026
 32,-0.00113940,0.00017070,-0.00027219,0.00007692,0.00026249,-0.0000808
 4,0.00003119,0.00006926,0.00078097,-0.00011589,0.00042433,0.00001057,0
 .00000411,-0.00002188,-0.00002375,0.00000420,-0.00002943,0.00000615,-0
 .00001442,-0.00001209,-0.00132996,0.00030520,-0.00056774,-0.00017032,0
 .00058232,0.00187063,0.00345274,-0.00035965,-0.00200188,-0.00971155,0.
 00464888,-0.01259108,-0.00245245,-0.00006243,-0.00090695,-0.00092812,0
 .00039805,-0.00006300,-0.00266547,0.00111687,-0.00131573,-0.35957159,0
 .05591327,-0.16234210,-0.00015213,0.00051389,0.00114516,0.55328744,-0.
 00021626,0.00395941,0.00088747,0.00526861,0.01510593,0.00233770,0.0014
 8292,-0.00018068,0.00038574,-0.00013554,0.00041671,-0.00035407,-0.0000
 8568,0.00006611,0.00018396,0.07108558,-0.05902152,0.02488664,0.0001940
 0,-0.00005404,-0.00123939,-0.17658712,0.10715922,-0.00116003,0.0008095
 7,0.00493875,-0.01071662,0.00160404,0.00975771,-0.00063709,-0.00017352
 ,-0.00012784,-0.00231344,0.00031716,-0.00100063,-0.00012077,0.00025290
 ,-0.00024447,-0.11188454,0.00819059,-0.13876920,0.00006840,-0.00088209
 ,-0.00251019,-0.00379520,0.08715385,0.30840940,-0.00001436,0.00001073,
 -0.00179254,0.00468112,-0.00074400,0.00351205,0.00016980,0.00011888,0.
 00001793,0.00058646,-0.00024027,0.00021464,-0.00014579,-0.00019854,-0.
 00010870,-0.05074976,0.02041434,0.01291888,-0.00052586,-0.00003535,-0.
 00033798,-0.18125889,0.09899349,0.13055928,0.22725727,0.00056415,0.001
 61552,0.00004342,-0.00214871,-0.00056989,-0.00154046,0.00026660,-0.000
 15246,0.00039009,-0.00027880,-0.00027624,0.00001826,-0.00043916,0.0000
 3443,-0.00035542,0.00577255,-0.00316749,-0.00168154,0.00016440,-0.0002
 6577,0.00044268,0.11441823,-0.06745113,-0.09727249,-0.11831927,0.07023
 301,0.00009912,-0.00067754,-0.00049067,-0.00122216,0.00007955,-0.00181
 896,-0.00041718,0.00001170,-0.00011765,0.00024785,0.00003076,0.0000256
 4,-0.00013262,0.00018941,0.00003338,-0.03580414,0.01443668,0.00787399,
 0.00034189,0.00021588,0.00077710,0.18187078,-0.11424189,-0.18045353,-0
 .14498356,0.09995545,0.17417071\\-0.00000068,-0.00000195,0.00000120,-0
 .00000008,-0.00000009,0.00000016,-0.00000014,-0.00000093,0.00000107,-0
 .00000023,-0.00000086,0.00000047,-0.00000108,-0.00000124,0.00000027,0.
 00000068,0.00000145,-0.00000066,-0.00000056,-0.00000101,0.,0.00000173,
 0.00000374,-0.00000188,0.00000037,0.00000089,-0.00000062\\\@


 NOT WHAT WE DID SHALL BE THE TEST
 WHEN ACT AND WILL ARE DONE,
 BUT WHAT OUR LORD INFERS WE WOULD-
 HAD WE DIVINER BEEN.
           EMILY DICKINSON  POEMS NO. CLXXV
 Job cpu time:       0 days  0 hours 13 minutes 33.2 seconds.
 File lengths (MBytes):  RWF=      9 Int=      0 D2E=      0 Chk=      1 Scr=      1
 Normal termination of Gaussian 09 at Thu Jan  7 02:26:41 2021.
