2
Properties=species:S:1:pos:R:3 energy=-2060.9635418125995 pbc="F F F"
O        0.95234300       0.06069700      -0.05406700
H        1.93116500       0.06069700      -0.05406700
