 Entering Gaussian System, Link 0=g09
 Initial command:
 /apps/applications/gaussian/G09.D01/2/default/g09/l1.exe "/nobackup/chmrsh/Scratch/Gau-133964.inp" -scrdir="/nobackup/chmrsh/Scratch/"
 Entering Link 1 = /apps/applications/gaussian/G09.D01/2/default/g09/l1.exe PID=    133965.
  
 Copyright (c) 1988,1990,1992,1993,1995,1998,2003,2009,2013,
            Gaussian, Inc.  All Rights Reserved.
  
 This is part of the Gaussian(R) 09 program.  It is based on
 the Gaussian(R) 03 system (copyright 2003, Gaussian, Inc.),
 the Gaussian(R) 98 system (copyright 1998, Gaussian, Inc.),
 the Gaussian(R) 94 system (copyright 1995, Gaussian, Inc.),
 the Gaussian 92(TM) system (copyright 1992, Gaussian, Inc.),
 the Gaussian 90(TM) system (copyright 1990, Gaussian, Inc.),
 the Gaussian 88(TM) system (copyright 1988, Gaussian, Inc.),
 the Gaussian 86(TM) system (copyright 1986, Carnegie Mellon
 University), and the Gaussian 82(TM) system (copyright 1983,
 Carnegie Mellon University). Gaussian is a federally registered
 trademark of Gaussian, Inc.
  
 This software contains proprietary and confidential information,
 including trade secrets, belonging to Gaussian, Inc.
  
 This software is provided under written license and may be
 used, copied, transmitted, or stored only in accord with that
 written license.
  
 The following legend is applicable only to US Government
 contracts under FAR:
  
                    RESTRICTED RIGHTS LEGEND
  
 Use, reproduction and disclosure by the US Government is
 subject to restrictions as set forth in subparagraphs (a)
 and (c) of the Commercial Computer Software - Restricted
 Rights clause in FAR 52.227-19.
  
 Gaussian, Inc.
 340 Quinnipiac St., Bldg. 40, Wallingford CT 06492
  
  
 ---------------------------------------------------------------
 Warning -- This program may not be used in any manner that
 competes with the business of Gaussian, Inc. or will provide
 assistance to any competitor of Gaussian, Inc.  The licensee
 of this program is prohibited from giving any competitor of
 Gaussian, Inc. access to this program.  By using this program,
 the user acknowledges that Gaussian, Inc. is engaged in the
 business of creating and licensing software in the field of
 computational chemistry and represents and warrants to the
 licensee that it is not a competitor of Gaussian, Inc. and that
 it will not use this program in any manner prohibited above.
 ---------------------------------------------------------------
  

 Cite this work as:
 Gaussian 09, Revision D.01,
 M. J. Frisch, G. W. Trucks, H. B. Schlegel, G. E. Scuseria, 
 M. A. Robb, J. R. Cheeseman, G. Scalmani, V. Barone, B. Mennucci, 
 G. A. Petersson, H. Nakatsuji, M. Caricato, X. Li, H. P. Hratchian, 
 A. F. Izmaylov, J. Bloino, G. Zheng, J. L. Sonnenberg, M. Hada, 
 M. Ehara, K. Toyota, R. Fukuda, J. Hasegawa, M. Ishida, T. Nakajima, 
 Y. Honda, O. Kitao, H. Nakai, T. Vreven, J. A. Montgomery, Jr., 
 J. E. Peralta, F. Ogliaro, M. Bearpark, J. J. Heyd, E. Brothers, 
 K. N. Kudin, V. N. Staroverov, T. Keith, R. Kobayashi, J. Normand, 
 K. Raghavachari, A. Rendell, J. C. Burant, S. S. Iyengar, J. Tomasi, 
 M. Cossi, N. Rega, J. M. Millam, M. Klene, J. E. Knox, J. B. Cross, 
 V. Bakken, C. Adamo, J. Jaramillo, R. Gomperts, R. E. Stratmann, 
 O. Yazyev, A. J. Austin, R. Cammi, C. Pomelli, J. W. Ochterski, 
 R. L. Martin, K. Morokuma, V. G. Zakrzewski, G. A. Voth, 
 P. Salvador, J. J. Dannenberg, S. Dapprich, A. D. Daniels, 
 O. Farkas, J. B. Foresman, J. V. Ortiz, J. Cioslowski, 
 and D. J. Fox, Gaussian, Inc., Wallingford CT, 2013.
 
 ******************************************
 Gaussian 09:  ES64L-G09RevD.01 24-Apr-2013
                 6-Feb-2021 
 ******************************************
 %nprocshared=1
 Will use up to    1 processors via shared memory.
 ----------------------------------------------------------------------
 #P upm6 scf=qc opt(calcall, ts, noeigentest, cartesian,maxcycle=100) N
 oSymm, guess=mix
 ----------------------------------------------------------------------
 1/5=1,6=100,10=4,11=1,14=-1,18=10,26=1,38=1/1,3;
 2/12=2,15=1,17=6,18=5,29=2,40=1/2;
 3/5=2,16=1,25=1,41=3900000,71=2,116=2,140=1/1,2,3;
 4/13=-1,35=1/1;
 5/5=2,8=3,35=1,38=5/8;
 8/6=4,10=90,11=11/1;
 11/6=1,8=1,9=11,15=111,16=1,31=1/1,2,10;
 10/6=1,31=1/2;
 6/7=2,8=2,9=2,10=2,18=1,28=1/1;
 7/7=1,10=1,25=1,30=1/1,2,3,16;
 1/5=1,6=100,10=4,11=1,14=-1,18=10,26=1/3(3);
 2/15=1,29=1/2;
 7/7=1,8=1,9=1,25=1,30=1,44=-1/16;
 99/12=1/99;
 2/15=1,29=1/2;
 3/5=2,16=1,25=1,41=3900000,71=2,116=2,135=20,140=1/1,2,3;
 4/5=5,16=3,35=1/1;
 5/5=2,8=3,35=1,38=5/8;
 8/6=4,10=90,11=11/1;
 11/6=1,8=1,9=11,15=111,16=1,31=1/1,2,10;
 10/6=1,31=1/2;
 7/7=1,10=1,25=1,30=1/1,2,3,16;
 1/5=1,6=100,10=4,11=1,14=-1,18=10,26=1/3(-8);
 2/15=1,29=1/2;
 6/7=2,8=2,9=2,10=2,18=1,19=2,28=1/1;
 7/7=1,8=1,9=1,25=1,30=1,44=-1/16;
 99/12=1/99;
 Leave Link    1 at Sat Feb  6 16:47:55 2021, MaxMem=           0 cpu:         0.1
 (Enter /apps/applications/gaussian/G09.D01/2/default/g09/l101.exe)
 ------------------------------
 Gaussian input prepared by ASE
 ------------------------------
 Symbolic Z-matrix:
 Charge =  0 Multiplicity = 2
 O                     2.74508   1.79799   1.86267 
 C                     1.65924   1.66782   1.36873 
 C                     0.34459   1.31214   1.98709 
 C                     0.17836  -0.20849   2.10952 
 C                     0.50488  -0.99114   0.83328 
 C                    -0.3076   -0.59654  -0.38341 
 H                     0.02769   0.65061  -0.69484 
 C                    -0.01088  -1.39636  -1.66337 
 O                     0.5807   -2.44573  -1.58196 
 C                    -0.45979  -0.78103  -2.94265 
 H                    -3.29892   0.02296  -0.64472 
 H                     0.26837   1.78347   2.99093 
 H                    -0.49099   1.74313   1.38421 
 H                     0.8259   -0.58558   2.93026 
 H                    -0.8663   -0.42283   2.41996 
 H                     1.58605  -0.89235   0.57951 
 H                     0.36489  -2.08261   1.01972 
 H                    -0.29478  -1.4552   -3.79704 
 H                    -1.53419  -0.52492  -2.91842 
 H                     0.07843   0.1559   -3.15833 
 O                    -1.6515   -0.56037   0.01027 
 O                    -2.38252   0.10697  -1.04282 
 O                     0.45879   1.87447  -0.59556 
 O                     1.67449   1.8277   -0.07302 
 
 NAtoms=     24 NQM=       24 NQMF=       0 NMMI=      0 NMMIF=      0
                NMic=       0 NMicF=      0.
                    Isotopes and Nuclear Properties:
 (Nuclear quadrupole moments (NQMom) in fm**2, nuclear magnetic moments (NMagM)
  in nuclear magnetons)

  Atom         1           2           3           4           5           6           7           8           9          10
 IAtWgt=          16          12          12          12          12          12           1          12          16          12
 AtmWgt=  15.9949146  12.0000000  12.0000000  12.0000000  12.0000000  12.0000000   1.0078250  12.0000000  15.9949146  12.0000000
 NucSpn=           0           0           0           0           0           0           1           0           0           0
 AtZEff=   0.0000000   0.0000000   0.0000000   0.0000000   0.0000000   0.0000000   0.0000000   0.0000000   0.0000000   0.0000000
 NQMom=    0.0000000   0.0000000   0.0000000   0.0000000   0.0000000   0.0000000   0.0000000   0.0000000   0.0000000   0.0000000
 NMagM=    0.0000000   0.0000000   0.0000000   0.0000000   0.0000000   0.0000000   2.7928460   0.0000000   0.0000000   0.0000000
 AtZNuc=   8.0000000   6.0000000   6.0000000   6.0000000   6.0000000   6.0000000   1.0000000   6.0000000   8.0000000   6.0000000

  Atom        11          12          13          14          15          16          17          18          19          20
 IAtWgt=           1           1           1           1           1           1           1           1           1           1
 AtmWgt=   1.0078250   1.0078250   1.0078250   1.0078250   1.0078250   1.0078250   1.0078250   1.0078250   1.0078250   1.0078250
 NucSpn=           1           1           1           1           1           1           1           1           1           1
 AtZEff=   0.0000000   0.0000000   0.0000000   0.0000000   0.0000000   0.0000000   0.0000000   0.0000000   0.0000000   0.0000000
 NQMom=    0.0000000   0.0000000   0.0000000   0.0000000   0.0000000   0.0000000   0.0000000   0.0000000   0.0000000   0.0000000
 NMagM=    2.7928460   2.7928460   2.7928460   2.7928460   2.7928460   2.7928460   2.7928460   2.7928460   2.7928460   2.7928460
 AtZNuc=   1.0000000   1.0000000   1.0000000   1.0000000   1.0000000   1.0000000   1.0000000   1.0000000   1.0000000   1.0000000

  Atom        21          22          23          24
 IAtWgt=          16          16          16          16
 AtmWgt=  15.9949146  15.9949146  15.9949146  15.9949146
 NucSpn=           0           0           0           0
 AtZEff=   0.0000000   0.0000000   0.0000000   0.0000000
 NQMom=    0.0000000   0.0000000   0.0000000   0.0000000
 NMagM=    0.0000000   0.0000000   0.0000000   0.0000000
 AtZNuc=   8.0000000   8.0000000   8.0000000   8.0000000
 Leave Link  101 at Sat Feb  6 16:47:55 2021, MaxMem=    33554432 cpu:         0.1
 (Enter /apps/applications/gaussian/G09.D01/2/default/g09/l103.exe)

 GradGradGradGradGradGradGradGradGradGradGradGradGradGradGradGradGradGrad
 Berny optimization.
 Initialization pass.
 No Z-matrix variables, so optimization will use Cartesian coordinates.
 Trust Radius=3.00D-01 FncErr=1.00D-07 GrdErr=1.00D-07
 Number of steps in this run=    100 maximum allowed number of steps=    144.
 Search for a saddle point of order  1.
 GradGradGradGradGradGradGradGradGradGradGradGradGradGradGradGradGradGrad

 Leave Link  103 at Sat Feb  6 16:47:55 2021, MaxMem=    33554432 cpu:         0.0
 (Enter /apps/applications/gaussian/G09.D01/2/default/g09/l202.exe)
 ---------------------------------------------------------------------------------------------------
                            Z-MATRIX (ANGSTROMS AND DEGREES)
   CD    Cent   Atom    N1       Length/X        N2       Alpha/Y        N3        Beta/Z          J
 ---------------------------------------------------------------------------------------------------
      1      1  O        0   2.745083          1.797988          1.862665
      2      2  C        0   1.659245          1.667825          1.368729
      3      3  C        0   0.344593          1.312141          1.987090
      4      4  C        0   0.178361         -0.208494          2.109523
      5      5  C        0   0.504881         -0.991143          0.833275
      6      6  C        0  -0.307596         -0.596543         -0.383412
      7      7  H        0   0.027694          0.650609         -0.694844
      8      8  C        0  -0.010884         -1.396360         -1.663369
      9      9  O        0   0.580697         -2.445731         -1.581960
     10     10  C        0  -0.459786         -0.781030         -2.942652
     11     11  H        0  -3.298920          0.022960         -0.644719
     12     12  H        0   0.268367          1.783473          2.990933
     13     13  H        0  -0.490991          1.743133          1.384214
     14     14  H        0   0.825903         -0.585583          2.930257
     15     15  H        0  -0.866299         -0.422829          2.419955
     16     16  H        0   1.586049         -0.892350          0.579510
     17     17  H        0   0.364887         -2.082614          1.019720
     18     18  H        0  -0.294782         -1.455197         -3.797045
     19     19  H        0  -1.534188         -0.524919         -2.918422
     20     20  H        0   0.078427          0.155901         -3.158331
     21     21  O        0  -1.651496         -0.560374          0.010273
     22     22  O        0  -2.382524          0.106973         -1.042815
     23     23  O        0   0.458788          1.874466         -0.595556
     24     24  O        0   1.674489          1.827701         -0.073020
 ---------------------------------------------------------------------------------------------------
                         Z-Matrix orientation:                         
 ---------------------------------------------------------------------
 Center     Atomic      Atomic             Coordinates (Angstroms)
 Number     Number       Type             X           Y           Z
 ---------------------------------------------------------------------
      1          8           0        2.745083    1.797988    1.862665
      2          6           0        1.659245    1.667825    1.368729
      3          6           0        0.344593    1.312141    1.987090
      4          6           0        0.178361   -0.208494    2.109523
      5          6           0        0.504881   -0.991143    0.833275
      6          6           0       -0.307596   -0.596543   -0.383412
      7          1           0        0.027694    0.650609   -0.694844
      8          6           0       -0.010884   -1.396360   -1.663369
      9          8           0        0.580697   -2.445731   -1.581960
     10          6           0       -0.459786   -0.781030   -2.942652
     11          1           0       -3.298920    0.022960   -0.644719
     12          1           0        0.268367    1.783473    2.990933
     13          1           0       -0.490991    1.743133    1.384214
     14          1           0        0.825903   -0.585583    2.930257
     15          1           0       -0.866299   -0.422829    2.419955
     16          1           0        1.586049   -0.892350    0.579510
     17          1           0        0.364887   -2.082614    1.019720
     18          1           0       -0.294782   -1.455197   -3.797045
     19          1           0       -1.534188   -0.524919   -2.918422
     20          1           0        0.078427    0.155901   -3.158331
     21          8           0       -1.651496   -0.560374    0.010273
     22          8           0       -2.382524    0.106973   -1.042815
     23          8           0        0.458788    1.874466   -0.595556
     24          8           0        1.674489    1.827701   -0.073020
 ---------------------------------------------------------------------
                    Distance matrix (angstroms):
                    1          2          3          4          5
     1  O    0.000000
     2  C    1.199983   0.000000
     3  C    2.452322   1.495724   0.000000
     4  C    3.267257   2.502471   1.534586   0.000000
     5  C    3.722553   2.947775   2.581104   1.532306   0.000000
     6  C    4.483023   3.473589   3.112508   2.569331   1.515307
     7  H    3.904041   2.820464   2.780435   2.936874   2.293077
     8  C    5.498376   4.623005   4.559407   3.959994   2.581365
     9  O    5.878704   5.176018   5.188011   4.335222   2.820449
    10  C    6.325630   5.392142   5.415787   5.124403   3.902865
    11  H    6.779946   5.598477   4.675852   4.441948   4.204970
    12  H    2.721639   2.139967   1.111604   2.180118   3.522771
    13  H    3.271712   2.151610   1.116877   2.186996   2.961682
    14  H    3.241051   2.865427   2.173149   1.111355   2.159830
    15  H    4.276059   3.443004   2.159572   1.110686   2.172710
    16  H    3.198088   2.680060   2.895216   2.188650   1.114936
    17  H    4.629791   3.982833   3.529954   2.175957   1.116095
    18  H    7.201133   6.344817   6.443848   6.055219   4.721723
    19  H    6.823991   5.778045   5.564949   5.321013   4.295393
    20  H    5.917593   5.027840   5.280445   5.281388   4.174984
    21  O    5.321949   4.215599   3.376165   2.806964   2.347947
    22  O    6.131371   4.958599   4.250874   4.073683   3.614234
    23  O    3.357953   2.311323   2.645622   3.425612   3.202405
    24  O    2.212223   1.450666   2.505689   3.338859   3.183588
                    6          7          8          9         10
     6  C    0.000000
     7  H    1.328457   0.000000
     8  C    1.538192   2.264865   0.000000
     9  O    2.375937   3.268043   1.207383   0.000000
    10  C    2.570391   2.709220   1.488862   2.388581   0.000000
    11  H    3.065956   3.385678   3.723346   4.693004   3.739997
    12  H    4.169222   3.863451   5.643744   6.236590   6.504945
    13  H    2.938064   2.405229   4.401668   5.243403   5.009406
    14  H    3.502190   3.912373   4.739089   4.886755   6.015169
    15  H    2.863773   3.413717   4.284045   4.711821   5.389909
    16  H    2.144903   2.536369   2.799058   2.845289   4.074734
    17  H    2.151608   3.244062   2.794837   2.635747   4.251423
    18  H    3.519991   3.763251   2.153284   2.579578   1.100779
    19  H    2.817079   2.960683   2.157550   3.154107   1.104771
    20  H    2.900925   2.513181   2.156943   3.083133   1.101831
    21  O    1.400844   2.187087   2.488284   3.327530   3.191963
    22  O    2.288029   2.495150   2.875722   3.948120   2.845145
    23  O    2.595812   1.301356   3.472625   4.433052   3.661188
    24  O    3.146738   2.117579   3.970423   4.662134   4.426669
                   11         12         13         14         15
    11  H    0.000000
    12  H    5.389147   0.000000
    13  H    3.867820   1.777581   0.000000
    14  H    5.492262   2.434533   3.089882   0.000000
    15  H    3.938096   2.545829   2.430021   1.774949   0.000000
    16  H    5.118540   3.835528   3.450712   2.489566   3.101887
    17  H    4.541727   4.340694   3.937223   2.470585   2.496270
    18  H    4.598582   7.542066   6.092065   6.875227   6.327994
    19  H    2.929877   6.595328   4.974435   6.307199   5.380964
    20  H    4.212172   6.363844   4.845437   6.178950   5.687242
    21  O    1.866360   4.250156   2.922436   3.829418   2.538114
    22  O    1.002657   5.109696   3.485023   5.153536   3.817121
    23  O    4.189375   3.592693   2.199732   4.314855   4.015810
    24  O    5.321534   3.371489   2.611510   3.945086   4.211343
                   16         17         18         19         20
    16  H    0.000000
    17  H    1.761179   0.000000
    18  H    4.796723   4.902044   0.000000
    19  H    4.701746   4.641321   1.781438   0.000000
    20  H    4.164518   4.748592   1.772817   1.766805   0.000000
    21  O    3.303928   2.720661   4.139692   2.931258   3.680453
    22  O    4.402290   4.073894   3.792733   2.153338   3.245625
    23  O    3.210416   4.275093   4.680177   3.889050   3.109012
    24  O    2.798624   4.266111   5.340768   4.891497   3.855058
                   21         22         23         24
    21  O    0.000000
    22  O    1.445251   0.000000
    23  O    3.278533   3.375963   0.000000
    24  O    4.095365   4.512290   1.324069   0.000000
 Symmetry turned off by external request.
 Stoichiometry    C7H11O6(2)
 Framework group  C1[X(C7H11O6)]
 Deg. of freedom    66
 Full point group                 C1      NOp   1
 Rotational constants (GHZ):      1.1951918      0.5274285      0.5133605
 Leave Link  202 at Sat Feb  6 16:47:56 2021, MaxMem=    33554432 cpu:         0.0
 (Enter /apps/applications/gaussian/G09.D01/2/default/g09/l301.exe)
 Standard basis: VSTO-6G (5D, 7F)
 Ernie: Thresh=  0.10000D-02 Tol=  0.10000D-05 Strict=F.
  NNHCO=     0 NNPyr=     0 NCTC=     0               EPep=         0.000000000
    EC=       430.014901204  ECS=         4.940683797   EG=         0.353109469
   EHC=         0.001668424  EAt=       -97.491951148  AtH=         3.389121767
 EPDDG=         0.000000000  ECC=       435.310362894 EAtT=       100.881072916
    63 basis functions,   378 primitive gaussians,    63 cartesian basis functions
    38 alpha electrons       37 beta electrons
       nuclear repulsion energy       536.1914358095 Hartrees.
 IExCor=    0 DFT=F Ex=HF Corr=None ExCW=0 ScaHFX=  1.000000
 ScaDFX=  1.000000  1.000000  1.000000  1.000000 ScalE2=  1.000000  1.000000
 IRadAn=      0 IRanWt=     -1 IRanGd=            0 ICorTp=0 IEmpDi=  4
 Integral buffers will be    131072 words long.
 Regular integral format.
 Two-electron integral symmetry is turned off.
 Leave Link  301 at Sat Feb  6 16:47:56 2021, MaxMem=    33554432 cpu:         0.0
 (Enter /apps/applications/gaussian/G09.D01/2/default/g09/l302.exe)
 Do NDO integrals.
 NPDir=0 NMtPBC=     1 NCelOv=     1 NCel=       1 NClECP=     1 NCelD=      1
         NCelK=      1 NCelE2=     1 NClLst=     1 CellRange=     0.0.
 One-electron integrals computed using PRISM.
 NBasis=    63 RedAO= F EigKep=  0.00D+00  NBF=    63
 NBsUse=    63 1.00D-04 EigRej=  0.00D+00 NBFU=    63
 Leave Link  302 at Sat Feb  6 16:47:56 2021, MaxMem=    33554432 cpu:         0.0
 (Enter /apps/applications/gaussian/G09.D01/2/default/g09/l303.exe)
 DipDrv:  MaxL=1.
 Leave Link  303 at Sat Feb  6 16:47:56 2021, MaxMem=    33554432 cpu:         0.0
 (Enter /apps/applications/gaussian/G09.D01/2/default/g09/l401.exe)
 Simple Huckel Guess.
 JPrj=0 DoOrth=F DoCkMO=T.
 Mixing orbitals, IMix= 1 IMixAn=  0 NRI=1 NE=   38 Coef=  7.07106781D-01  7.07106781D-01
 Mixing orbitals, IMix= 1 IMixAn=  0 NRI=1 NE=   37 Coef= -7.07106781D-01  7.07106781D-01
 Initial guess <Sx>= 0.0000 <Sy>= 0.0000 <Sz>= 0.5000 <S**2>= 1.0000 S= 0.6180
 Leave Link  401 at Sat Feb  6 16:47:56 2021, MaxMem=    33554432 cpu:         0.0
 (Enter /apps/applications/gaussian/G09.D01/2/default/g09/l508.exe)
 Direct SCF.
 Tight linear equation convergence will be used.
 UPM6 wavefunction.
 Quadratic Convergence SCF Method.
 Line search only if initial step raises energy.
 Two-electron integral symmetry not used.
 ReadGW:  IGet=1 IStart=       59293 Next=       59293 LGW=           0.
 Keep J ints in memory in canonical form, NReq=922402.
 FoFCou: FMM=F IPFlag=           0 FMFlag=           0 FMFlg1=           0
         NFxFlg=           0 DoJE=F BraDBF=F KetDBF=F FulRan=T
         wScrn=  0.000000 ICntrl=     600 IOpCl=  2 I1Cent=           0 NGrid=           0
         NMat0=    1 NMatS0=    141 NMatT0=    0 NMatD0=    1 NMtDS0=    0 NMtDT0=    0
 Symmetry not used in FoFCou.
 Iteration   1 EE= 0.865580114741192                                    Grad=6.439D-01 Max rot=    5.2279 deg.
 Gradient too large for Newton-Raphson -- use scaled steepest descent instead.
 Alpha Gap=     0.190 HL deriv= 2.51D-01
  Beta Gap=     0.201 HL deriv= 5.75D-02
     ILin= 1 X=0.000D+00 Y= 8.655801147412D-01 DE= 0.00D+00 F= -1.08D+00
     ILin= 2 X=3.000D-01 Y= 5.666140274193D-01 DE=-2.99D-01 F= -9.04D-01
     ILin= 3 X=4.000D-01 Y= 4.794451526418D-01 DE=-3.86D-01 F= -8.39D-01
     ILin= 4 X=6.000D-01 Y= 3.254993994026D-01 DE=-5.40D-01 F= -6.99D-01
     ILin= 5 X=8.000D-01 Y= 2.004932397790D-01 DE=-6.65D-01 F= -5.49D-01
     ILin= 6 X=1.200D+00 Y= 4.486728529162D-02 DE=-8.21D-01 F= -2.23D-01
     ILin= 7 X=1.700D+00 Y= 4.240799657464D-02 DE=-8.23D-01 F=  2.18D-01
     Accept linear search using points  6 and  7.
     An  expanding polynomial of degree  7 produced  1.4526
 Iteration   2 EE= 0.159947105953506E-01 Delta-E=       -0.849585404146 Grad=2.139D-01 Max rot=    1.5385 deg.
 Gradient too large for Newton-Raphson -- use scaled steepest descent instead.
 Alpha Gap=     0.247 HL deriv= 5.01D-03
  Beta Gap=     0.210 HL deriv= 1.27D-01
     ILin= 1 X=0.000D+00 Y= 1.599471059535D-02 DE= 0.00D+00 F= -1.25D-01
     ILin= 2 X=7.000D-01 Y=-4.833181643698D-02 DE=-6.43D-02 F= -5.87D-02
     ILin= 3 X=1.000D+00 Y=-6.164656091630D-02 DE=-7.76D-02 F= -3.00D-02
     ILin= 4 X=1.500D+00 Y=-6.463207438219D-02 DE=-8.06D-02 F=  1.81D-02
     Accept linear search using points  3 and  4.
     An  expanding polynomial of degree  4 produced  1.2659
 Iteration   3 EE=-0.662265543285230E-01 Delta-E=       -0.082221264924 Grad=7.826D-02 Max rot=    1.6740 deg.
 Gradient too large for Newton-Raphson -- use scaled steepest descent instead.
 Alpha Gap=     0.269 HL deriv= 1.08D-01
  Beta Gap=     0.247 HL deriv= 5.16D-02
     ILin= 1 X=0.000D+00 Y=-6.622655432852D-02 DE= 0.00D+00 F= -2.30D-02
     ILin= 2 X=1.400D+00 Y=-8.646085265877D-02 DE=-2.02D-02 F= -5.68D-03
     ILin= 3 X=2.100D+00 Y=-8.726823831410D-02 DE=-2.10D-02 F=  3.41D-03
     Accept linear search using points  2 and  3.
     An  expanding polynomial of degree  3 produced  1.8006
 Iteration   4 EE=-0.877020252011107E-01 Delta-E=       -0.021475470873 Grad=6.973D-02 Max rot=    1.5809 deg.
 Gradient too large for Newton-Raphson -- use scaled steepest descent instead.
 Alpha Gap=     0.291 HL deriv= 5.22D-02
  Beta Gap=     0.248 HL deriv= 1.11D-01
     ILin= 1 X=0.000D+00 Y=-8.770202520111D-02 DE= 0.00D+00 F= -1.93D-02
     ILin= 2 X=1.500D+00 Y=-1.041355126645D-01 DE=-1.64D-02 F= -2.35D-03
     ILin= 3 X=2.300D+00 Y=-1.022314554419D-01 DE=-1.45D-02 F=  7.13D-03
     An  expanding polynomial of degree  3 produced  1.6948
 Iteration   5 EE=-0.104369911406820     Delta-E=       -0.016667886206 Grad=6.606D-02 Max rot=    1.3819 deg.
 Gradient too large for Newton-Raphson -- use scaled steepest descent instead.
 Alpha Gap=     0.332 HL deriv= 7.27D-02
  Beta Gap=     0.270 HL deriv= 5.90D-02
     ILin= 1 X=0.000D+00 Y=-1.043699114068D-01 DE= 0.00D+00 F= -1.52D-02
     ILin= 2 X=1.700D+00 Y=-1.166591067728D-01 DE=-1.23D-02 F=  9.02D-04
     ILin= 3 X=2.900D+00 Y=-1.084351744065D-01 DE=-4.07D-03 F=  1.29D-02
     An  expanding polynomial of degree  3 produced  1.5943
     Minimum is close to point  2 DX= -1.06D-01 DF= -5.42D-05 DXR=  6.63D-02 DFR=  4.41D-03 which will be used.
 Iteration   6 EE=-0.116659106772772     Delta-E=       -0.012289195366 Grad=5.438D-02 Max rot=    1.2260 deg.
 Gradient too large for Newton-Raphson -- use scaled steepest descent instead.
 Alpha Gap=     0.341 HL deriv= 2.46D-02
  Beta Gap=     0.288 HL deriv= 7.44D-02
     ILin= 1 X=0.000D+00 Y=-1.166591067728D-01 DE= 0.00D+00 F= -1.03D-02
     ILin= 2 X=1.600D+00 Y=-1.239518490394D-01 DE=-7.29D-03 F=  1.19D-03
     Accept linear search using points  1 and  2.
     An  expanding polynomial of degree  2 produced  1.5398
     Minimum is close to point  2 DX= -6.02D-02 DF= -2.21D-05 DXR=  3.91D-02 DFR=  3.04D-03 which will be used.
 Iteration   7 EE=-0.123951849039372     Delta-E=       -0.007292742267 Grad=4.327D-02 Max rot=    0.6136 deg.
 Gradient too large for Newton-Raphson -- use scaled steepest descent instead.
 Alpha Gap=     0.363 HL deriv= 2.32D-02
  Beta Gap=     0.294 HL deriv= 3.64D-02
     ILin= 1 X=0.000D+00 Y=-1.239518490394D-01 DE= 0.00D+00 F= -5.92D-03
     ILin= 2 X=1.600D+00 Y=-1.280452434989D-01 DE=-4.09D-03 F=  8.40D-04
     Accept linear search using points  1 and  2.
     An  expanding polynomial of degree  2 produced  1.5251
     Minimum is close to point  2 DX= -7.49D-02 DF= -1.94D-05 DXR=  4.91D-02 DFR=  4.73D-03 which will be used.
 Iteration   8 EE=-0.128045243498946     Delta-E=       -0.004093394460 Grad=3.260D-02 Max rot=    0.6166 deg.
 Gradient too large for Newton-Raphson -- use scaled steepest descent instead.
 Alpha Gap=     0.363 HL deriv= 6.92D-03
  Beta Gap=     0.304 HL deriv= 3.54D-02
     ILin= 1 X=0.000D+00 Y=-1.280452434989D-01 DE= 0.00D+00 F= -3.39D-03
     ILin= 2 X=1.500D+00 Y=-1.303713739869D-01 DE=-2.33D-03 F=  2.80D-04
     Accept linear search using points  1 and  2.
     An  expanding polynomial of degree  2 produced  1.4544
     Minimum is close to point  2 DX= -4.56D-02 DF= -4.21D-06 DXR=  3.13D-02 DFR=  1.81D-03 which will be used.
 Iteration   9 EE=-0.130371373986918     Delta-E=       -0.002326130488 Grad=2.269D-02 Max rot=    0.3403 deg.
 Gradient too large for Newton-Raphson -- use scaled steepest descent instead.
 Alpha Gap=     0.371 HL deriv= 7.73D-03
  Beta Gap=     0.304 HL deriv= 1.95D-02
     ILin= 1 X=0.000D+00 Y=-1.303713739869D-01 DE= 0.00D+00 F= -1.69D-03
     ILin= 2 X=1.500D+00 Y=-1.316708910191D-01 DE=-1.30D-03 F= -3.60D-05
     Reject lnstep minimum 1.510D+00 FVal=-1.316710139319D-01 Lims=  0.00D+00  1.50D+00
     ILin= 3 X=3.000D+00 Y=-1.304654586114D-01 DE=-9.41D-05 F=  1.65D-03
     An  expanding polynomial of degree  3 produced  1.5282
     Minimum is close to point  2 DX=  2.82D-02 DF= -4.42D-07 DXR=  1.84D-02 DFR=  3.40D-04 which will be used.
 Iteration  10 EE=-0.131670891019098     Delta-E=       -0.001299517032 Grad=1.602D-02 Max rot=    0.3057 deg.
 Gradient too large for Newton-Raphson -- use scaled steepest descent instead.
 Alpha Gap=     0.371 HL deriv= 2.75D-03
  Beta Gap=     0.308 HL deriv= 1.73D-02
     ILin= 1 X=0.000D+00 Y=-1.316708910191D-01 DE= 0.00D+00 F= -8.67D-04
     ILin= 2 X=1.500D+00 Y=-1.324031500403D-01 DE=-7.32D-04 F= -1.09D-04
     ILin= 3 X=3.000D+00 Y=-1.319982072366D-01 DE=-3.27D-04 F=  6.49D-04
     An  expanding polynomial of degree  3 produced  1.7159
 Iteration  11 EE=-0.132414931126164     Delta-E=       -0.000744040107 Grad=1.340D-02 Max rot=    0.1687 deg.
 Gradient too large for Newton-Raphson -- use scaled steepest descent instead.
 Alpha Gap=     0.374 HL deriv= 3.34D-03
  Beta Gap=     0.308 HL deriv= 9.57D-03
     ILin= 1 X=0.000D+00 Y=-1.324149311262D-01 DE= 0.00D+00 F= -5.85D-04
     ILin= 2 X=1.600D+00 Y=-1.328380705272D-01 DE=-4.23D-04 F=  5.69D-05
     Accept linear search using points  1 and  2.
     An  expanding polynomial of degree  2 produced  1.5509
     Minimum is close to point  2 DX= -4.91D-02 DF= -8.64D-07 DXR=  3.17D-02 DFR=  2.04D-03 which will be used.
 Iteration  12 EE=-0.132838070527214     Delta-E=       -0.000423139401 Grad=1.064D-02 Max rot=    0.1508 deg.
 Gradient too large for Newton-Raphson -- use scaled steepest descent instead.
 Alpha Gap=     0.374 HL deriv= 8.71D-04
  Beta Gap=     0.310 HL deriv= 8.50D-03
     ILin= 1 X=0.000D+00 Y=-1.328380705272D-01 DE= 0.00D+00 F= -3.54D-04
     ILin= 2 X=1.600D+00 Y=-1.330842868045D-01 DE=-2.46D-04 F=  4.66D-05
     Accept linear search using points  1 and  2.
     An  expanding polynomial of degree  2 produced  1.5303
     Minimum is close to point  2 DX= -6.97D-02 DF= -1.00D-06 DXR=  4.55D-02 DFR=  4.06D-03 which will be used.
 Iteration  13 EE=-0.133084286804547     Delta-E=       -0.000246216277 Grad=8.332D-03 Max rot=    0.0899 deg.
 QCNR:  CnvC1=4.37D-09 CnvC2=4.37D-08
 LinEq1:  Iter=  0 NonCon=     1 RMS=3.47D-04 Max=6.35D-03 NDo=     1
 AX will form     1 AO Fock derivatives at one time.
 LinEq1:  Iter=  1 NonCon=     1 RMS=1.35D-04 Max=1.20D-03 NDo=     1
 LinEq1:  Iter=  2 NonCon=     1 RMS=2.22D-05 Max=3.61D-04 NDo=     1
 LinEq1:  Iter=  3 NonCon=     1 RMS=8.51D-06 Max=1.15D-04 NDo=     1
 LinEq1:  Iter=  4 NonCon=     1 RMS=1.10D-06 Max=7.76D-06 NDo=     1
 LinEq1:  Iter=  5 NonCon=     1 RMS=2.33D-07 Max=2.78D-06 NDo=     1
 LinEq1:  Iter=  6 NonCon=     1 RMS=4.74D-08 Max=7.40D-07 NDo=     1
 LinEq1:  Iter=  7 NonCon=     1 RMS=1.00D-08 Max=1.33D-07 NDo=     1
 LinEq1:  Iter=  8 NonCon=     0 RMS=2.10D-09 Max=2.46D-08 NDo=     1
 Linear equations converged to 4.373D-09 4.373D-08 after     8 iterations.
 Angle between quadratic step and gradient=  65.43 degrees.
     ILin= 1 X=0.000D+00 Y=-1.330842868045D-01 DE= 0.00D+00 F= -1.24D-03
     ILin= 2 X=1.000D+00 Y=-1.335214169687D-01 DE=-4.37D-04 F=  5.86D-04
     Accept linear search using points  1 and  2.
     An  expanding polynomial of degree  2 produced  0.7495
 Iteration  14 EE=-0.133592184849135     Delta-E=       -0.000507898045 Grad=2.103D-03 Max rot=    0.0308 deg.
 QCNR:  CnvC1=4.37D-09 CnvC2=4.37D-08
 LinEq1:  Iter=  0 NonCon=     1 RMS=8.93D-05 Max=1.86D-03 NDo=     1
 LinEq1:  Iter=  1 NonCon=     1 RMS=3.19D-05 Max=4.05D-04 NDo=     1
 LinEq1:  Iter=  2 NonCon=     1 RMS=5.27D-06 Max=7.01D-05 NDo=     1
 LinEq1:  Iter=  3 NonCon=     1 RMS=1.60D-06 Max=2.07D-05 NDo=     1
 LinEq1:  Iter=  4 NonCon=     1 RMS=3.60D-07 Max=4.71D-06 NDo=     1
 LinEq1:  Iter=  5 NonCon=     1 RMS=6.27D-08 Max=9.38D-07 NDo=     1
 LinEq1:  Iter=  6 NonCon=     1 RMS=1.24D-08 Max=1.42D-07 NDo=     1
 LinEq1:  Iter=  7 NonCon=     1 RMS=2.76D-09 Max=4.68D-08 NDo=     1
 LinEq1:  Iter=  8 NonCon=     0 RMS=5.67D-10 Max=7.00D-09 NDo=     1
 Linear equations converged to 4.373D-09 4.373D-08 after     8 iterations.
 Angle between quadratic step and gradient=  55.54 degrees.
     ILin= 1 X=0.000D+00 Y=-1.335921848491D-01 DE= 0.00D+00 F= -5.04D-05
     ILin= 2 X=1.000D+00 Y=-1.336175302262D-01 DE=-2.53D-05 F= -4.22D-07
     Reject lnstep minimum 1.009D+00 FVal=-1.336175320237D-01 Lims=  0.00D+00  1.00D+00
     ILin= 3 X=2.000D+00 Y=-1.335932942568D-01 DE=-1.11D-06 F=  4.88D-05
     An  expanding polynomial of degree  3 produced  1.0112
     Minimum is close to point  2 DX=  1.12D-02 DF= -3.10D-09 DXR=  1.11D-02 DFR=  1.22D-04 which will be used.
 Iteration  15 EE=-0.133617530226161     Delta-E=       -0.000025345377 Grad=4.022D-05 Max rot=    0.0007 deg.
 QCNR:  CnvC1=4.02D-10 CnvC2=4.02D-09
 LinEq1:  Iter=  0 NonCon=     1 RMS=1.77D-06 Max=3.22D-05 NDo=     1
 LinEq1:  Iter=  1 NonCon=     1 RMS=4.99D-07 Max=7.56D-06 NDo=     1
 LinEq1:  Iter=  2 NonCon=     1 RMS=1.32D-07 Max=1.33D-06 NDo=     1
 LinEq1:  Iter=  3 NonCon=     1 RMS=2.82D-08 Max=3.27D-07 NDo=     1
 LinEq1:  Iter=  4 NonCon=     1 RMS=6.13D-09 Max=1.13D-07 NDo=     1
 LinEq1:  Iter=  5 NonCon=     1 RMS=1.38D-09 Max=2.88D-08 NDo=     1
 LinEq1:  Iter=  6 NonCon=     1 RMS=3.29D-10 Max=4.11D-09 NDo=     1
 LinEq1:  Iter=  7 NonCon=     0 RMS=7.80D-11 Max=1.18D-09 NDo=     1
 Linear equations converged to 4.022D-10 4.022D-09 after     7 iterations.
 Angle between quadratic step and gradient=  52.29 degrees.
     ILin= 1 X=0.000D+00 Y=-1.336175302262D-01 DE= 0.00D+00 F= -4.12D-08
     ILin= 2 X=1.000D+00 Y=-1.336175508560D-01 DE=-2.06D-08
 Iteration  16 EE=-0.133617550856002     Delta-E=       -0.000000020630 Grad=1.224D-06 Max rot=    0.0000 deg.
 QCNR:  CnvC1=1.22D-11 CnvC2=1.22D-10
 LinEq1:  Iter=  0 NonCon=     1 RMS=4.28D-08 Max=6.31D-07 NDo=     1
 LinEq1:  Iter=  1 NonCon=     1 RMS=1.34D-08 Max=1.71D-07 NDo=     1
 LinEq1:  Iter=  2 NonCon=     1 RMS=3.39D-09 Max=7.49D-08 NDo=     1
 LinEq1:  Iter=  3 NonCon=     1 RMS=8.27D-10 Max=1.15D-08 NDo=     1
 LinEq1:  Iter=  4 NonCon=     1 RMS=1.79D-10 Max=1.72D-09 NDo=     1
 LinEq1:  Iter=  5 NonCon=     1 RMS=4.57D-11 Max=5.58D-10 NDo=     1
 LinEq1:  Iter=  6 NonCon=     1 RMS=1.23D-11 Max=1.70D-10 NDo=     1
 LinEq1:  Iter=  7 NonCon=     0 RMS=3.39D-12 Max=3.72D-11 NDo=     1
 Linear equations converged to 1.224D-11 1.224D-10 after     7 iterations.
 Angle between quadratic step and gradient=  55.85 degrees.
     ILin= 1 X=0.000D+00 Y=-1.336175508560D-01 DE= 0.00D+00 F= -7.94D-12
     ILin= 2 X=1.000D+00 Y=-1.336175508585D-01 DE=-2.50D-12
 Iteration  17 EE=-0.133617550858503     Delta-E=       -0.000000000003 Grad=3.128D-08 Max rot=    0.0000 deg.
 Rotation gradient small -- convergence achieved.
 SCF Done:  E(UPM6) = -0.133617550859     a.u. after   17 cycles
            Convg  =    0.3128D-07                    66 Fock formations.
              S**2 =  0.8863                  -V/T =  0.9970
 <Sx>= 0.0000 <Sy>= 0.0000 <Sz>= 0.5000 <S**2>= 0.8863 S= 0.5660
 <L.S>= 0.000000000000E+00
 Annihilation of the first spin contaminant:
 S**2 before annihilation     0.8863,   after     0.7579
 Leave Link  508 at Sat Feb  6 16:47:56 2021, MaxMem=    33554432 cpu:         0.2
 (Enter /apps/applications/gaussian/G09.D01/2/default/g09/l801.exe)
 Range of M.O.s used for correlation:     1    63
 NBasis=    63 NAE=    38 NBE=    37 NFC=     0 NFV=     0
 NROrb=     63 NOA=    38 NOB=    37 NVA=    25 NVB=    26
 Leave Link  801 at Sat Feb  6 16:47:56 2021, MaxMem=    33554432 cpu:         0.0
 (Enter /apps/applications/gaussian/G09.D01/2/default/g09/l1101.exe)
 Using compressed storage, NAtomX=    24.
 Will process     25 centers per pass.
 Leave Link 1101 at Sat Feb  6 16:47:56 2021, MaxMem=    33554432 cpu:         0.1
 (Enter /apps/applications/gaussian/G09.D01/2/default/g09/l1102.exe)
 Symmetrizing basis deriv contribution to polar:
 IMax=3 JMax=2 DiffMx= 0.00D+00
 Leave Link 1102 at Sat Feb  6 16:47:56 2021, MaxMem=    33554432 cpu:         0.0
 (Enter /apps/applications/gaussian/G09.D01/2/default/g09/l1110.exe)
 Forming Gx(P) for the SCF density, NAtomX=    24.
 Integral derivatives from FoFJK, PRISM(SPDF).
 Do as many integral derivatives as possible in FoFJK.
 G2DrvN: MDV=      33495245.
 G2DrvN: will do    25 centers at a time, making    1 passes.
 Calling FoFCou, ICntrl=  3107 FMM=F I1Cent=   0 AccDes= 0.00D+00.
 FoFJK:  IHMeth=40 ICntrl=    3107 DoSepK=F KAlg= 0 I1Cent=   0 FoldK=F
 IRaf=         0 NMat=   1 IRICut=       1 DoRegI=T DoRafI=F ISym2E= 0.
 FoFCou: FMM=F IPFlag=           0 FMFlag=      100000 FMFlg1=           0
         NFxFlg=           0 DoJE=F BraDBF=F KetDBF=F FulRan=T
         wScrn=  0.000000 ICntrl=    3107 IOpCl=  1 I1Cent=           0 NGrid=           0
         NMat0=    1 NMatS0=      1 NMatT0=    0 NMatD0=    1 NMtDS0=    0 NMtDT0=    0
 Symmetry not used in FoFCou.
 End of G2Drv F.D. properties file   721 does not exist.
 End of G2Drv F.D. properties file   722 does not exist.
 End of G2Drv F.D. properties file   788 does not exist.
 Leave Link 1110 at Sat Feb  6 16:47:56 2021, MaxMem=    33554432 cpu:         0.0
 (Enter /apps/applications/gaussian/G09.D01/2/default/g09/l1002.exe)
 Minotr:  UHF open shell wavefunction.
          IDoAtm=111111111111111111111111
          Direct CPHF calculation.
          Differentiating once with respect to electric field.
                with respect to dipole field.
          Differentiating once with respect to nuclear coordinates.
          Electric field/nuclear overlap derivatives assumed to be zero.
          Requested convergence is 1.0D-08 RMS, and 1.0D-07 maximum.
          NewPWx=T KeepS1=F KeepF1=F KeepIn=T MapXYZ=F SortEE=F KeepMc=T.
          MDV=      33495171 using IRadAn=       2.
 Keep J ints in memory in canonical form, NReq=894630.
 FoFCou: FMM=F IPFlag=           0 FMFlag=           0 FMFlg1=           0
         NFxFlg=           0 DoJE=F BraDBF=F KetDBF=F FulRan=T
         wScrn=  0.000000 ICntrl=     600 IOpCl=  2 I1Cent=           0 NGrid=           0
         NMat0=    1 NMatS0=    141 NMatT0=    0 NMatD0=    1 NMtDS0=    0 NMtDT0=    0
 Symmetry not used in FoFCou.
          Solving linear equations separately, MaxMat=       0.
          There are    75 degrees of freedom in the 1st order CPHF.  IDoFFX=5 NUNeed=    75.
 LinEq1:  Iter=  0 NonCon=    75 RMS=2.01D-01 Max=3.62D+00 NDo=    75
 AX will form    75 AO Fock derivatives at one time.
 LinEq1:  Iter=  1 NonCon=    75 RMS=4.53D-02 Max=8.68D-01 NDo=    75
 LinEq1:  Iter=  2 NonCon=    75 RMS=1.15D-02 Max=1.56D-01 NDo=    75
 LinEq1:  Iter=  3 NonCon=    75 RMS=2.29D-03 Max=3.09D-02 NDo=    75
 LinEq1:  Iter=  4 NonCon=    75 RMS=5.21D-04 Max=5.23D-03 NDo=    75
 LinEq1:  Iter=  5 NonCon=    75 RMS=1.23D-04 Max=1.99D-03 NDo=    75
 LinEq1:  Iter=  6 NonCon=    75 RMS=2.99D-05 Max=3.80D-04 NDo=    75
 LinEq1:  Iter=  7 NonCon=    73 RMS=7.07D-06 Max=7.89D-05 NDo=    75
 LinEq1:  Iter=  8 NonCon=    49 RMS=1.85D-06 Max=2.06D-05 NDo=    75
 LinEq1:  Iter=  9 NonCon=    23 RMS=5.40D-07 Max=5.80D-06 NDo=    75
 LinEq1:  Iter= 10 NonCon=     3 RMS=1.25D-07 Max=1.20D-06 NDo=    75
 LinEq1:  Iter= 11 NonCon=     3 RMS=2.72D-08 Max=2.08D-07 NDo=    75
 LinEq1:  Iter= 12 NonCon=     0 RMS=5.63D-09 Max=3.98D-08 NDo=    75
 Linear equations converged to 1.000D-08 1.000D-07 after    12 iterations.
 FullF1:  Do perturbations    1 to     3.
 Isotropic polarizability for W=    0.000000      105.97 Bohr**3.
 End of Minotr F.D. properties file   721 does not exist.
 End of Minotr F.D. properties file   722 does not exist.
 End of Minotr F.D. properties file   788 does not exist.
 Leave Link 1002 at Sat Feb  6 16:47:57 2021, MaxMem=    33554432 cpu:         0.8
 (Enter /apps/applications/gaussian/G09.D01/2/default/g09/l601.exe)
 Copying SCF densities to generalized density rwf, IOpCl= 1 IROHF=0.

 **********************************************************************

            Population analysis using the SCF density.

 **********************************************************************

 Alpha  occ. eigenvalues --   -1.19989  -1.19603  -1.16270  -1.14496  -1.10517
 Alpha  occ. eigenvalues --   -1.07573  -1.06603  -1.01029  -0.97459  -0.89419
 Alpha  occ. eigenvalues --   -0.81480  -0.76866  -0.75419  -0.71897  -0.69528
 Alpha  occ. eigenvalues --   -0.67142  -0.64608  -0.63286  -0.61098  -0.58988
 Alpha  occ. eigenvalues --   -0.58380  -0.57678  -0.56113  -0.55590  -0.55473
 Alpha  occ. eigenvalues --   -0.53029  -0.52746  -0.50504  -0.50129  -0.48536
 Alpha  occ. eigenvalues --   -0.48127  -0.46480  -0.45820  -0.44324  -0.41392
 Alpha  occ. eigenvalues --   -0.39753  -0.38178  -0.36046
 Alpha virt. eigenvalues --   -0.03574  -0.00481   0.00058   0.01034   0.07008
 Alpha virt. eigenvalues --    0.07298   0.08265   0.10325   0.10940   0.11571
 Alpha virt. eigenvalues --    0.12362   0.12875   0.14469   0.15004   0.15172
 Alpha virt. eigenvalues --    0.16118   0.17012   0.17380   0.18170   0.18507
 Alpha virt. eigenvalues --    0.18786   0.19866   0.20195   0.20255   0.22230
  Beta  occ. eigenvalues --   -1.19878  -1.19229  -1.14721  -1.12943  -1.10186
  Beta  occ. eigenvalues --   -1.06507  -1.01672  -0.99432  -0.97243  -0.89103
  Beta  occ. eigenvalues --   -0.80973  -0.76004  -0.74659  -0.71122  -0.68809
  Beta  occ. eigenvalues --   -0.65422  -0.64214  -0.62394  -0.60586  -0.58152
  Beta  occ. eigenvalues --   -0.57609  -0.55979  -0.55782  -0.55257  -0.54864
  Beta  occ. eigenvalues --   -0.52466  -0.51663  -0.50023  -0.49865  -0.48166
  Beta  occ. eigenvalues --   -0.47840  -0.46345  -0.44421  -0.42479  -0.40421
  Beta  occ. eigenvalues --   -0.36725  -0.36121
  Beta virt. eigenvalues --   -0.08097  -0.03024   0.00140   0.01284   0.01664
  Beta virt. eigenvalues --    0.07494   0.07757   0.09036   0.10702   0.11213
  Beta virt. eigenvalues --    0.11823   0.12451   0.13049   0.14786   0.15139
  Beta virt. eigenvalues --    0.15363   0.16629   0.17097   0.17601   0.18166
  Beta virt. eigenvalues --    0.18527   0.18798   0.19897   0.20215   0.20286
  Beta virt. eigenvalues --    0.22226
          Condensed to atoms (all electrons):
               1          2          3          4          5          6
     1  O    6.426140   0.000000   0.000000   0.000000   0.000000   0.000000
     2  C    0.000000   3.436510   0.000000   0.000000   0.000000   0.000000
     3  C    0.000000   0.000000   4.423029   0.000000   0.000000   0.000000
     4  C    0.000000   0.000000   0.000000   4.204476   0.000000   0.000000
     5  C    0.000000   0.000000   0.000000   0.000000   4.302845   0.000000
     6  C    0.000000   0.000000   0.000000   0.000000   0.000000   4.041232
     7  H    0.000000   0.000000   0.000000   0.000000   0.000000   0.000000
     8  C    0.000000   0.000000   0.000000   0.000000   0.000000   0.000000
     9  O    0.000000   0.000000   0.000000   0.000000   0.000000   0.000000
    10  C    0.000000   0.000000   0.000000   0.000000   0.000000   0.000000
    11  H    0.000000   0.000000   0.000000   0.000000   0.000000   0.000000
    12  H    0.000000   0.000000   0.000000   0.000000   0.000000   0.000000
    13  H    0.000000   0.000000   0.000000   0.000000   0.000000   0.000000
    14  H    0.000000   0.000000   0.000000   0.000000   0.000000   0.000000
    15  H    0.000000   0.000000   0.000000   0.000000   0.000000   0.000000
    16  H    0.000000   0.000000   0.000000   0.000000   0.000000   0.000000
    17  H    0.000000   0.000000   0.000000   0.000000   0.000000   0.000000
    18  H    0.000000   0.000000   0.000000   0.000000   0.000000   0.000000
    19  H    0.000000   0.000000   0.000000   0.000000   0.000000   0.000000
    20  H    0.000000   0.000000   0.000000   0.000000   0.000000   0.000000
    21  O    0.000000   0.000000   0.000000   0.000000   0.000000   0.000000
    22  O    0.000000   0.000000   0.000000   0.000000   0.000000   0.000000
    23  O    0.000000   0.000000   0.000000   0.000000   0.000000   0.000000
    24  O    0.000000   0.000000   0.000000   0.000000   0.000000   0.000000
               7          8          9         10         11         12
     1  O    0.000000   0.000000   0.000000   0.000000   0.000000   0.000000
     2  C    0.000000   0.000000   0.000000   0.000000   0.000000   0.000000
     3  C    0.000000   0.000000   0.000000   0.000000   0.000000   0.000000
     4  C    0.000000   0.000000   0.000000   0.000000   0.000000   0.000000
     5  C    0.000000   0.000000   0.000000   0.000000   0.000000   0.000000
     6  C    0.000000   0.000000   0.000000   0.000000   0.000000   0.000000
     7  H    0.767491   0.000000   0.000000   0.000000   0.000000   0.000000
     8  C    0.000000   3.454597   0.000000   0.000000   0.000000   0.000000
     9  O    0.000000   0.000000   6.449011   0.000000   0.000000   0.000000
    10  C    0.000000   0.000000   0.000000   4.626458   0.000000   0.000000
    11  H    0.000000   0.000000   0.000000   0.000000   0.700593   0.000000
    12  H    0.000000   0.000000   0.000000   0.000000   0.000000   0.813730
    13  H    0.000000   0.000000   0.000000   0.000000   0.000000   0.000000
    14  H    0.000000   0.000000   0.000000   0.000000   0.000000   0.000000
    15  H    0.000000   0.000000   0.000000   0.000000   0.000000   0.000000
    16  H    0.000000   0.000000   0.000000   0.000000   0.000000   0.000000
    17  H    0.000000   0.000000   0.000000   0.000000   0.000000   0.000000
    18  H    0.000000   0.000000   0.000000   0.000000   0.000000   0.000000
    19  H    0.000000   0.000000   0.000000   0.000000   0.000000   0.000000
    20  H    0.000000   0.000000   0.000000   0.000000   0.000000   0.000000
    21  O    0.000000   0.000000   0.000000   0.000000   0.000000   0.000000
    22  O    0.000000   0.000000   0.000000   0.000000   0.000000   0.000000
    23  O    0.000000   0.000000   0.000000   0.000000   0.000000   0.000000
    24  O    0.000000   0.000000   0.000000   0.000000   0.000000   0.000000
              13         14         15         16         17         18
     1  O    0.000000   0.000000   0.000000   0.000000   0.000000   0.000000
     2  C    0.000000   0.000000   0.000000   0.000000   0.000000   0.000000
     3  C    0.000000   0.000000   0.000000   0.000000   0.000000   0.000000
     4  C    0.000000   0.000000   0.000000   0.000000   0.000000   0.000000
     5  C    0.000000   0.000000   0.000000   0.000000   0.000000   0.000000
     6  C    0.000000   0.000000   0.000000   0.000000   0.000000   0.000000
     7  H    0.000000   0.000000   0.000000   0.000000   0.000000   0.000000
     8  C    0.000000   0.000000   0.000000   0.000000   0.000000   0.000000
     9  O    0.000000   0.000000   0.000000   0.000000   0.000000   0.000000
    10  C    0.000000   0.000000   0.000000   0.000000   0.000000   0.000000
    11  H    0.000000   0.000000   0.000000   0.000000   0.000000   0.000000
    12  H    0.000000   0.000000   0.000000   0.000000   0.000000   0.000000
    13  H    0.797739   0.000000   0.000000   0.000000   0.000000   0.000000
    14  H    0.000000   0.851098   0.000000   0.000000   0.000000   0.000000
    15  H    0.000000   0.000000   0.850629   0.000000   0.000000   0.000000
    16  H    0.000000   0.000000   0.000000   0.822981   0.000000   0.000000
    17  H    0.000000   0.000000   0.000000   0.000000   0.819569   0.000000
    18  H    0.000000   0.000000   0.000000   0.000000   0.000000   0.799637
    19  H    0.000000   0.000000   0.000000   0.000000   0.000000   0.000000
    20  H    0.000000   0.000000   0.000000   0.000000   0.000000   0.000000
    21  O    0.000000   0.000000   0.000000   0.000000   0.000000   0.000000
    22  O    0.000000   0.000000   0.000000   0.000000   0.000000   0.000000
    23  O    0.000000   0.000000   0.000000   0.000000   0.000000   0.000000
    24  O    0.000000   0.000000   0.000000   0.000000   0.000000   0.000000
              19         20         21         22         23         24
     1  O    0.000000   0.000000   0.000000   0.000000   0.000000   0.000000
     2  C    0.000000   0.000000   0.000000   0.000000   0.000000   0.000000
     3  C    0.000000   0.000000   0.000000   0.000000   0.000000   0.000000
     4  C    0.000000   0.000000   0.000000   0.000000   0.000000   0.000000
     5  C    0.000000   0.000000   0.000000   0.000000   0.000000   0.000000
     6  C    0.000000   0.000000   0.000000   0.000000   0.000000   0.000000
     7  H    0.000000   0.000000   0.000000   0.000000   0.000000   0.000000
     8  C    0.000000   0.000000   0.000000   0.000000   0.000000   0.000000
     9  O    0.000000   0.000000   0.000000   0.000000   0.000000   0.000000
    10  C    0.000000   0.000000   0.000000   0.000000   0.000000   0.000000
    11  H    0.000000   0.000000   0.000000   0.000000   0.000000   0.000000
    12  H    0.000000   0.000000   0.000000   0.000000   0.000000   0.000000
    13  H    0.000000   0.000000   0.000000   0.000000   0.000000   0.000000
    14  H    0.000000   0.000000   0.000000   0.000000   0.000000   0.000000
    15  H    0.000000   0.000000   0.000000   0.000000   0.000000   0.000000
    16  H    0.000000   0.000000   0.000000   0.000000   0.000000   0.000000
    17  H    0.000000   0.000000   0.000000   0.000000   0.000000   0.000000
    18  H    0.000000   0.000000   0.000000   0.000000   0.000000   0.000000
    19  H    0.788503   0.000000   0.000000   0.000000   0.000000   0.000000
    20  H    0.000000   0.794018   0.000000   0.000000   0.000000   0.000000
    21  O    0.000000   0.000000   6.122841   0.000000   0.000000   0.000000
    22  O    0.000000   0.000000   0.000000   6.324698   0.000000   0.000000
    23  O    0.000000   0.000000   0.000000   0.000000   6.243119   0.000000
    24  O    0.000000   0.000000   0.000000   0.000000   0.000000   6.139055
          Atomic-Atomic Spin Densities.
               1          2          3          4          5          6
     1  O    0.003984   0.000000   0.000000   0.000000   0.000000   0.000000
     2  C    0.000000  -0.016636   0.000000   0.000000   0.000000   0.000000
     3  C    0.000000   0.000000  -0.002751   0.000000   0.000000   0.000000
     4  C    0.000000   0.000000   0.000000   0.001568   0.000000   0.000000
     5  C    0.000000   0.000000   0.000000   0.000000  -0.011263   0.000000
     6  C    0.000000   0.000000   0.000000   0.000000   0.000000   0.411112
     7  H    0.000000   0.000000   0.000000   0.000000   0.000000   0.000000
     8  C    0.000000   0.000000   0.000000   0.000000   0.000000   0.000000
     9  O    0.000000   0.000000   0.000000   0.000000   0.000000   0.000000
    10  C    0.000000   0.000000   0.000000   0.000000   0.000000   0.000000
    11  H    0.000000   0.000000   0.000000   0.000000   0.000000   0.000000
    12  H    0.000000   0.000000   0.000000   0.000000   0.000000   0.000000
    13  H    0.000000   0.000000   0.000000   0.000000   0.000000   0.000000
    14  H    0.000000   0.000000   0.000000   0.000000   0.000000   0.000000
    15  H    0.000000   0.000000   0.000000   0.000000   0.000000   0.000000
    16  H    0.000000   0.000000   0.000000   0.000000   0.000000   0.000000
    17  H    0.000000   0.000000   0.000000   0.000000   0.000000   0.000000
    18  H    0.000000   0.000000   0.000000   0.000000   0.000000   0.000000
    19  H    0.000000   0.000000   0.000000   0.000000   0.000000   0.000000
    20  H    0.000000   0.000000   0.000000   0.000000   0.000000   0.000000
    21  O    0.000000   0.000000   0.000000   0.000000   0.000000   0.000000
    22  O    0.000000   0.000000   0.000000   0.000000   0.000000   0.000000
    23  O    0.000000   0.000000   0.000000   0.000000   0.000000   0.000000
    24  O    0.000000   0.000000   0.000000   0.000000   0.000000   0.000000
               7          8          9         10         11         12
     1  O    0.000000   0.000000   0.000000   0.000000   0.000000   0.000000
     2  C    0.000000   0.000000   0.000000   0.000000   0.000000   0.000000
     3  C    0.000000   0.000000   0.000000   0.000000   0.000000   0.000000
     4  C    0.000000   0.000000   0.000000   0.000000   0.000000   0.000000
     5  C    0.000000   0.000000   0.000000   0.000000   0.000000   0.000000
     6  C    0.000000   0.000000   0.000000   0.000000   0.000000   0.000000
     7  H   -0.134417   0.000000   0.000000   0.000000   0.000000   0.000000
     8  C    0.000000  -0.004971   0.000000   0.000000   0.000000   0.000000
     9  O    0.000000   0.000000   0.034819   0.000000   0.000000   0.000000
    10  C    0.000000   0.000000   0.000000  -0.002059   0.000000   0.000000
    11  H    0.000000   0.000000   0.000000   0.000000  -0.001474   0.000000
    12  H    0.000000   0.000000   0.000000   0.000000   0.000000  -0.000102
    13  H    0.000000   0.000000   0.000000   0.000000   0.000000   0.000000
    14  H    0.000000   0.000000   0.000000   0.000000   0.000000   0.000000
    15  H    0.000000   0.000000   0.000000   0.000000   0.000000   0.000000
    16  H    0.000000   0.000000   0.000000   0.000000   0.000000   0.000000
    17  H    0.000000   0.000000   0.000000   0.000000   0.000000   0.000000
    18  H    0.000000   0.000000   0.000000   0.000000   0.000000   0.000000
    19  H    0.000000   0.000000   0.000000   0.000000   0.000000   0.000000
    20  H    0.000000   0.000000   0.000000   0.000000   0.000000   0.000000
    21  O    0.000000   0.000000   0.000000   0.000000   0.000000   0.000000
    22  O    0.000000   0.000000   0.000000   0.000000   0.000000   0.000000
    23  O    0.000000   0.000000   0.000000   0.000000   0.000000   0.000000
    24  O    0.000000   0.000000   0.000000   0.000000   0.000000   0.000000
              13         14         15         16         17         18
     1  O    0.000000   0.000000   0.000000   0.000000   0.000000   0.000000
     2  C    0.000000   0.000000   0.000000   0.000000   0.000000   0.000000
     3  C    0.000000   0.000000   0.000000   0.000000   0.000000   0.000000
     4  C    0.000000   0.000000   0.000000   0.000000   0.000000   0.000000
     5  C    0.000000   0.000000   0.000000   0.000000   0.000000   0.000000
     6  C    0.000000   0.000000   0.000000   0.000000   0.000000   0.000000
     7  H    0.000000   0.000000   0.000000   0.000000   0.000000   0.000000
     8  C    0.000000   0.000000   0.000000   0.000000   0.000000   0.000000
     9  O    0.000000   0.000000   0.000000   0.000000   0.000000   0.000000
    10  C    0.000000   0.000000   0.000000   0.000000   0.000000   0.000000
    11  H    0.000000   0.000000   0.000000   0.000000   0.000000   0.000000
    12  H    0.000000   0.000000   0.000000   0.000000   0.000000   0.000000
    13  H    0.000199   0.000000   0.000000   0.000000   0.000000   0.000000
    14  H    0.000000  -0.000415   0.000000   0.000000   0.000000   0.000000
    15  H    0.000000   0.000000  -0.000237   0.000000   0.000000   0.000000
    16  H    0.000000   0.000000   0.000000   0.002873   0.000000   0.000000
    17  H    0.000000   0.000000   0.000000   0.000000   0.013355   0.000000
    18  H    0.000000   0.000000   0.000000   0.000000   0.000000  -0.000164
    19  H    0.000000   0.000000   0.000000   0.000000   0.000000   0.000000
    20  H    0.000000   0.000000   0.000000   0.000000   0.000000   0.000000
    21  O    0.000000   0.000000   0.000000   0.000000   0.000000   0.000000
    22  O    0.000000   0.000000   0.000000   0.000000   0.000000   0.000000
    23  O    0.000000   0.000000   0.000000   0.000000   0.000000   0.000000
    24  O    0.000000   0.000000   0.000000   0.000000   0.000000   0.000000
              19         20         21         22         23         24
     1  O    0.000000   0.000000   0.000000   0.000000   0.000000   0.000000
     2  C    0.000000   0.000000   0.000000   0.000000   0.000000   0.000000
     3  C    0.000000   0.000000   0.000000   0.000000   0.000000   0.000000
     4  C    0.000000   0.000000   0.000000   0.000000   0.000000   0.000000
     5  C    0.000000   0.000000   0.000000   0.000000   0.000000   0.000000
     6  C    0.000000   0.000000   0.000000   0.000000   0.000000   0.000000
     7  H    0.000000   0.000000   0.000000   0.000000   0.000000   0.000000
     8  C    0.000000   0.000000   0.000000   0.000000   0.000000   0.000000
     9  O    0.000000   0.000000   0.000000   0.000000   0.000000   0.000000
    10  C    0.000000   0.000000   0.000000   0.000000   0.000000   0.000000
    11  H    0.000000   0.000000   0.000000   0.000000   0.000000   0.000000
    12  H    0.000000   0.000000   0.000000   0.000000   0.000000   0.000000
    13  H    0.000000   0.000000   0.000000   0.000000   0.000000   0.000000
    14  H    0.000000   0.000000   0.000000   0.000000   0.000000   0.000000
    15  H    0.000000   0.000000   0.000000   0.000000   0.000000   0.000000
    16  H    0.000000   0.000000   0.000000   0.000000   0.000000   0.000000
    17  H    0.000000   0.000000   0.000000   0.000000   0.000000   0.000000
    18  H    0.000000   0.000000   0.000000   0.000000   0.000000   0.000000
    19  H    0.000165   0.000000   0.000000   0.000000   0.000000   0.000000
    20  H    0.000000   0.000208   0.000000   0.000000   0.000000   0.000000
    21  O    0.000000   0.000000   0.066295   0.000000   0.000000   0.000000
    22  O    0.000000   0.000000   0.000000   0.016864   0.000000   0.000000
    23  O    0.000000   0.000000   0.000000   0.000000   0.544969   0.000000
    24  O    0.000000   0.000000   0.000000   0.000000   0.000000   0.078077
 Mulliken charges and spin densities:
               1          2
     1  O   -0.426140   0.003984
     2  C    0.563490  -0.016636
     3  C   -0.423029  -0.002751
     4  C   -0.204476   0.001568
     5  C   -0.302845  -0.011263
     6  C   -0.041232   0.411112
     7  H    0.232509  -0.134417
     8  C    0.545403  -0.004971
     9  O   -0.449011   0.034819
    10  C   -0.626458  -0.002059
    11  H    0.299407  -0.001474
    12  H    0.186270  -0.000102
    13  H    0.202261   0.000199
    14  H    0.148902  -0.000415
    15  H    0.149371  -0.000237
    16  H    0.177019   0.002873
    17  H    0.180431   0.013355
    18  H    0.200363  -0.000164
    19  H    0.211497   0.000165
    20  H    0.205982   0.000208
    21  O   -0.122841   0.066295
    22  O   -0.324698   0.016864
    23  O   -0.243119   0.544969
    24  O   -0.139055   0.078077
 Sum of Mulliken charges =   0.00000   1.00000
 Mulliken charges and spin densities with hydrogens summed into heavy atoms:
               1          2
     1  O   -0.426140   0.003984
     2  C    0.563490  -0.016636
     3  C   -0.034498  -0.002654
     4  C    0.093797   0.000917
     5  C    0.054606   0.004965
     6  C   -0.041232   0.411112
     8  C    0.545403  -0.004971
     9  O   -0.449011   0.034819
    10  C   -0.008616  -0.001850
    21  O   -0.122841   0.066295
    22  O   -0.025291   0.015389
    23  O   -0.010610   0.410552
    24  O   -0.139055   0.078077
 APT charges:
               1
     1  O   -0.856844
     2  C    1.391761
     3  C   -0.579114
     4  C   -0.140722
     5  C   -0.403923
     6  C    0.809575
     7  H   -0.938931
     8  C    1.132758
     9  O   -0.786081
    10  C   -0.936724
    11  H    0.339594
    12  H    0.206301
    13  H    0.186348
    14  H    0.138563
    15  H    0.139593
    16  H    0.141185
    17  H    0.189275
    18  H    0.242245
    19  H    0.255423
    20  H    0.226835
    21  O   -0.407262
    22  O   -0.364871
    23  O    0.819225
    24  O   -0.803473
 Sum of APT charges =   0.00074
 APT charges with hydrogens summed into heavy atoms:
               1
     1  O   -0.856844
     2  C    1.391761
     3  C   -0.186466
     4  C    0.137434
     5  C   -0.073463
     6  C    0.809575
     8  C    1.132758
     9  O   -0.786081
    10  C   -0.212221
    21  O   -0.407262
    22  O   -0.025278
    23  O   -0.119706
    24  O   -0.803473
 Charge=              0.0000 electrons
 Dipole moment (field-independent basis, Debye):
    X=             -5.0045    Y=             -0.4528    Z=              0.7914  Tot=              5.0869
 N-N= 5.361914358095D+02 E-N=-9.758615348212D+02  KE=-4.448015513805D+01
  Exact polarizability: 113.712  30.249 114.742  25.872  14.293  89.455
 Approx polarizability:  77.948   3.511  65.486  15.557  -3.747  60.288
 Leave Link  601 at Sat Feb  6 16:47:57 2021, MaxMem=    33554432 cpu:         0.0
 (Enter /apps/applications/gaussian/G09.D01/2/default/g09/l701.exe)
 Compute integral second derivatives.
 ... and contract with generalized density number  0.
 Leave Link  701 at Sat Feb  6 16:47:57 2021, MaxMem=    33554432 cpu:         0.1
 (Enter /apps/applications/gaussian/G09.D01/2/default/g09/l702.exe)
 L702 exits ... SP integral derivatives will be done elsewhere.
 Leave Link  702 at Sat Feb  6 16:47:57 2021, MaxMem=    33554432 cpu:         0.0
 (Enter /apps/applications/gaussian/G09.D01/2/default/g09/l703.exe)
 Compute integral second derivatives, UseDBF=F ICtDFT=           0.
 Integral derivatives from FoFJK, PRISM(SPDF).
 Calling FoFJK, ICntrl=    100127 FMM=F ISym2X=0 I1Cent= 0 IOpClX= 1 NMat=1 NMatS=1 NMatT=0.
 FoFJK:  IHMeth=40 ICntrl=  100127 DoSepK=F KAlg= 0 I1Cent=   0 FoldK=F
 IRaf=         0 NMat=   1 IRICut=       1 DoRegI=T DoRafI=F ISym2E= 0.
 FoFCou: FMM=F IPFlag=           0 FMFlag=      100000 FMFlg1=         800
         NFxFlg=           0 DoJE=F BraDBF=F KetDBF=F FulRan=T
         wScrn=  0.000000 ICntrl=  100127 IOpCl=  1 I1Cent=           0 NGrid=           0
         NMat0=    1 NMatS0=      1 NMatT0=    0 NMatD0=    1 NMtDS0=    0 NMtDT0=    0
 Symmetry not used in FoFCou.
 Leave Link  703 at Sat Feb  6 16:47:58 2021, MaxMem=    33554432 cpu:         0.1
 (Enter /apps/applications/gaussian/G09.D01/2/default/g09/l716.exe)
 Dipole        =-1.96891916D+00-1.78153115D-01 3.11353154D-01
 Polarizability= 1.13712007D+02 3.02493809D+01 1.14741673D+02
                 2.58722443D+01 1.42930166D+01 8.94548238D+01
 HyperPolar    = 9.60045260D+01 1.20085795D+02 1.59893313D+02
                 8.95699319D+02-2.23211361D+02-1.28155328D+02
                 1.38188022D+02-5.85305472D+01 5.00964783D+01
                 1.37704499D+02
 -------------------------------------------------------------------
 Center     Atomic                   Forces (Hartrees/Bohr)
 Number     Number              X              Y              Z
 -------------------------------------------------------------------
      1        8           0.000000780    0.000000090    0.000000388
      2        6          -0.000000206    0.000000028   -0.000000108
      3        6          -0.000000191    0.000000171    0.000000112
      4        6          -0.000000068   -0.000000113    0.000000208
      5        6           0.000000349   -0.000000079   -0.000000015
      6        6          -0.000000130   -0.000000171    0.000000323
      7        1           0.000000021    0.000000156   -0.000000074
      8        6          -0.000000159    0.000000218    0.000000027
      9        8           0.000000400   -0.000000696    0.000000052
     10        6          -0.000000073    0.000000096   -0.000000217
     11        1          -0.000000216    0.000000107   -0.000000127
     12        1          -0.000000037    0.000000116    0.000000215
     13        1          -0.000000194    0.000000109   -0.000000099
     14        1           0.000000124   -0.000000091    0.000000196
     15        1          -0.000000227   -0.000000062    0.000000089
     16        1           0.000000252   -0.000000013   -0.000000018
     17        1          -0.000000024   -0.000000235    0.000000023
     18        1           0.000000024   -0.000000124   -0.000000194
     19        1          -0.000000222    0.000000066   -0.000000026
     20        1           0.000000099    0.000000197   -0.000000064
     21        8           0.000000310   -0.000000270    0.000000091
     22        8          -0.000000586    0.000000343   -0.000000257
     23        8          -0.000000325    0.000000113   -0.000000254
     24        8           0.000000299    0.000000045   -0.000000273
 -------------------------------------------------------------------
 Cartesian Forces:  Max     0.000000780 RMS     0.000000227
 Leave Link  716 at Sat Feb  6 16:47:58 2021, MaxMem=    33554432 cpu:         0.0
 (Enter /apps/applications/gaussian/G09.D01/2/default/g09/l103.exe)

 GradGradGradGradGradGradGradGradGradGradGradGradGradGradGradGradGradGrad
 Berny optimization.
 Search for a saddle point.
 Step number   1 out of a maximum of  100
 All quantities printed in internal units (Hartrees-Bohrs-Radians)
 Swapping is turned off.
 Second derivative matrix not updated -- analytic derivatives used.
 ITU=  0
     Eigenvalues ---   -0.55886   0.00007   0.00025   0.00053   0.00111
     Eigenvalues ---    0.00135   0.00211   0.00345   0.00521   0.00573
     Eigenvalues ---    0.00830   0.01320   0.01601   0.01932   0.02083
     Eigenvalues ---    0.02434   0.02740   0.03790   0.04034   0.04475
     Eigenvalues ---    0.04518   0.04809   0.05256   0.05376   0.05618
     Eigenvalues ---    0.05708   0.05727   0.06354   0.07105   0.07857
     Eigenvalues ---    0.07958   0.08462   0.09309   0.10282   0.11691
     Eigenvalues ---    0.12231   0.13483   0.14944   0.16831   0.17709
     Eigenvalues ---    0.19305   0.20837   0.24196   0.26944   0.29272
     Eigenvalues ---    0.32421   0.38194   0.44494   0.46755   0.50013
     Eigenvalues ---    0.50498   0.54720   0.55162   0.56602   0.59196
     Eigenvalues ---    0.59908   0.61131   0.63046   0.63818   0.67531
     Eigenvalues ---    0.69410   0.70366   0.71214   0.76218   1.66568
     Eigenvalues ---    1.75207
 Eigenvectors required to have negative eigenvalues:
                          Y7        Y6        X23       Y23       X7
   1                    0.67518  -0.37859  -0.30817  -0.28430   0.27760
                          X6        Z24       X24       Z6        Z2
   1                   -0.17090   0.15568   0.13825   0.11895  -0.11520
 RFO step:  Lambda0=2.262634524D-13 Lambda= 0.00000000D+00.
 Linear search not attempted -- option 19 set.
 TrRot=  0.000005  0.000003  0.000000  0.000000 -0.000001  0.000000
 Variable       Old X    -DE/DX   Delta X   Delta X   Delta X     New X
                                 (Linear)    (Quad)   (Total)
    X1        5.18746   0.00000   0.00000  -0.00001  -0.00001   5.18745
    Y1        3.39770   0.00000   0.00000   0.00000   0.00001   3.39771
    Z1        3.51993   0.00000   0.00000   0.00002   0.00003   3.51995
    X2        3.13552   0.00000   0.00000   0.00000   0.00000   3.13551
    Y2        3.15173   0.00000   0.00000   0.00000   0.00000   3.15173
    Z2        2.58652   0.00000   0.00000   0.00001   0.00002   2.58654
    X3        0.65119   0.00000   0.00000  -0.00001  -0.00001   0.65118
    Y3        2.47959   0.00000   0.00000   0.00000   0.00000   2.47959
    Z3        3.75506   0.00000   0.00000   0.00000   0.00000   3.75506
    X4        0.33705   0.00000   0.00000  -0.00001  -0.00001   0.33705
    Y4       -0.39400   0.00000   0.00000   0.00000   0.00000  -0.39400
    Z4        3.98642   0.00000   0.00000   0.00000   0.00000   3.98642
    X5        0.95409   0.00000   0.00000   0.00000   0.00001   0.95409
    Y5       -1.87299   0.00000   0.00000   0.00000   0.00000  -1.87299
    Z5        1.57466   0.00000   0.00000   0.00000   0.00000   1.57466
    X6       -0.58127   0.00000   0.00000   0.00001   0.00001  -0.58126
    Y6       -1.12730   0.00000   0.00000  -0.00001   0.00000  -1.12731
    Z6       -0.72454   0.00000   0.00000  -0.00001  -0.00001  -0.72455
    X7        0.05233   0.00000   0.00000   0.00001   0.00002   0.05235
    Y7        1.22947   0.00000   0.00000   0.00000   0.00000   1.22947
    Z7       -1.31306   0.00000   0.00000   0.00000   0.00000  -1.31307
    X8       -0.02057   0.00000   0.00000   0.00002   0.00003  -0.02054
    Y8       -2.63874   0.00000   0.00000   0.00000   0.00000  -2.63874
    Z8       -3.14331   0.00000   0.00000  -0.00001  -0.00001  -3.14332
    X9        1.09736   0.00000   0.00000   0.00009   0.00010   1.09746
    Y9       -4.62176   0.00000   0.00000   0.00004   0.00004  -4.62172
    Z9       -2.98947   0.00000   0.00000  -0.00001  -0.00001  -2.98948
   X10       -0.86887   0.00000   0.00000  -0.00005  -0.00003  -0.86890
   Y10       -1.47593   0.00000   0.00000  -0.00004  -0.00004  -1.47597
   Z10       -5.56081   0.00000   0.00000   0.00000   0.00000  -5.56081
   X11       -6.23406   0.00000   0.00000   0.00002   0.00002  -6.23403
   Y11        0.04339   0.00000   0.00000   0.00008   0.00008   0.04347
   Z11       -1.21834   0.00000   0.00000   0.00001   0.00000  -1.21834
   X12        0.50714   0.00000   0.00000  -0.00002  -0.00002   0.50712
   Y12        3.37027   0.00000   0.00000   0.00000   0.00000   3.37027
   Z12        5.65204   0.00000   0.00000   0.00000   0.00000   5.65205
   X13       -0.92784   0.00000   0.00000  -0.00001  -0.00001  -0.92784
   Y13        3.29404   0.00000   0.00000   0.00000   0.00000   3.29404
   Z13        2.61579   0.00000   0.00000   0.00000  -0.00001   2.61578
   X14        1.56073   0.00000   0.00000  -0.00001  -0.00001   1.56072
   Y14       -1.10659   0.00000   0.00000  -0.00001   0.00000  -1.10659
   Z14        5.53738   0.00000   0.00000   0.00000   0.00001   5.53739
   X15       -1.63707   0.00000   0.00000  -0.00001  -0.00001  -1.63708
   Y15       -0.79903   0.00000   0.00000  -0.00001   0.00000  -0.79903
   Z15        4.57305   0.00000   0.00000  -0.00001  -0.00001   4.57304
   X16        2.99720   0.00000   0.00000   0.00000   0.00001   2.99721
   Y16       -1.68630   0.00000   0.00000   0.00000   0.00000  -1.68630
   Z16        1.09511   0.00000   0.00000   0.00001   0.00001   1.09512
   X17        0.68954   0.00000   0.00000   0.00000   0.00001   0.68954
   Y17       -3.93557   0.00000   0.00000  -0.00001   0.00000  -3.93557
   Z17        1.92699   0.00000   0.00000   0.00000   0.00000   1.92699
   X18       -0.55706   0.00000   0.00000  -0.00006  -0.00004  -0.55710
   Y18       -2.74992   0.00000   0.00000  -0.00005  -0.00005  -2.74997
   Z18       -7.17537   0.00000   0.00000   0.00000   0.00000  -7.17537
   X19       -2.89919   0.00000   0.00000  -0.00005  -0.00004  -2.89924
   Y19       -0.99195   0.00000   0.00000  -0.00007  -0.00006  -0.99202
   Z19       -5.51502   0.00000   0.00000   0.00003   0.00003  -5.51499
   X20        0.14821   0.00000   0.00000  -0.00008  -0.00007   0.14814
   Y20        0.29461   0.00000   0.00000  -0.00003  -0.00002   0.29459
   Z20       -5.96838   0.00000   0.00000  -0.00004  -0.00004  -5.96842
   X21       -3.12087   0.00000   0.00000   0.00000   0.00001  -3.12087
   Y21       -1.05895   0.00000   0.00000  -0.00001  -0.00001  -1.05896
   Z21        0.01941   0.00000   0.00000  -0.00002  -0.00002   0.01939
   X22       -4.50232   0.00000   0.00000   0.00002   0.00003  -4.50229
   Y22        0.20215   0.00000   0.00000   0.00006   0.00006   0.20221
   Z22       -1.97064   0.00000   0.00000   0.00001   0.00000  -1.97063
   X23        0.86698   0.00000   0.00000   0.00001   0.00002   0.86700
   Y23        3.54223   0.00000   0.00000   0.00000   0.00000   3.54223
   Z23       -1.12544   0.00000   0.00000   0.00000   0.00000  -1.12544
   X24        3.16432   0.00000   0.00000   0.00001   0.00001   3.16434
   Y24        3.45385   0.00000   0.00000   0.00000   0.00000   3.45385
   Z24       -0.13799   0.00000   0.00000   0.00001   0.00001  -0.13797
         Item               Value     Threshold  Converged?
 Maximum Force            0.000001     0.000450     YES
 RMS     Force            0.000000     0.000300     YES
 Maximum Displacement     0.000097     0.001800     YES
 RMS     Displacement     0.000026     0.001200     YES
 Predicted change in Energy=-1.142665D-11
 Optimization completed.
    -- Stationary point found.
 Lowest energy point so far.  Saving SCF results.
 GradGradGradGradGradGradGradGradGradGradGradGradGradGradGradGradGradGrad

 Largest change from initial coordinates is atom    0       0.000 Angstoms.
 Leave Link  103 at Sat Feb  6 16:47:58 2021, MaxMem=    33554432 cpu:         0.0
 (Enter /apps/applications/gaussian/G09.D01/2/default/g09/l202.exe)
                          Input orientation:                          
 ---------------------------------------------------------------------
 Center     Atomic      Atomic             Coordinates (Angstroms)
 Number     Number       Type             X           Y           Z
 ---------------------------------------------------------------------
      1          8           0        2.745083    1.797988    1.862665
      2          6           0        1.659245    1.667825    1.368729
      3          6           0        0.344593    1.312141    1.987090
      4          6           0        0.178361   -0.208494    2.109523
      5          6           0        0.504881   -0.991143    0.833275
      6          6           0       -0.307596   -0.596543   -0.383412
      7          1           0        0.027694    0.650609   -0.694844
      8          6           0       -0.010884   -1.396360   -1.663369
      9          8           0        0.580697   -2.445731   -1.581960
     10          6           0       -0.459786   -0.781030   -2.942652
     11          1           0       -3.298920    0.022960   -0.644719
     12          1           0        0.268367    1.783473    2.990933
     13          1           0       -0.490991    1.743133    1.384214
     14          1           0        0.825903   -0.585583    2.930257
     15          1           0       -0.866299   -0.422829    2.419955
     16          1           0        1.586049   -0.892350    0.579510
     17          1           0        0.364887   -2.082614    1.019720
     18          1           0       -0.294782   -1.455197   -3.797045
     19          1           0       -1.534188   -0.524919   -2.918422
     20          1           0        0.078427    0.155901   -3.158331
     21          8           0       -1.651496   -0.560374    0.010273
     22          8           0       -2.382524    0.106973   -1.042815
     23          8           0        0.458788    1.874466   -0.595556
     24          8           0        1.674489    1.827701   -0.073020
 ---------------------------------------------------------------------
                    Distance matrix (angstroms):
                    1          2          3          4          5
     1  O    0.000000
     2  C    1.199983   0.000000
     3  C    2.452322   1.495724   0.000000
     4  C    3.267257   2.502471   1.534586   0.000000
     5  C    3.722553   2.947775   2.581104   1.532306   0.000000
     6  C    4.483023   3.473589   3.112508   2.569331   1.515307
     7  H    3.904041   2.820464   2.780435   2.936874   2.293077
     8  C    5.498376   4.623005   4.559407   3.959994   2.581365
     9  O    5.878704   5.176018   5.188011   4.335222   2.820449
    10  C    6.325630   5.392142   5.415787   5.124403   3.902865
    11  H    6.779946   5.598477   4.675852   4.441948   4.204970
    12  H    2.721639   2.139967   1.111604   2.180118   3.522771
    13  H    3.271712   2.151610   1.116877   2.186996   2.961682
    14  H    3.241051   2.865427   2.173149   1.111355   2.159830
    15  H    4.276059   3.443004   2.159572   1.110686   2.172710
    16  H    3.198088   2.680060   2.895216   2.188650   1.114936
    17  H    4.629791   3.982833   3.529954   2.175957   1.116095
    18  H    7.201133   6.344817   6.443848   6.055219   4.721723
    19  H    6.823991   5.778045   5.564949   5.321013   4.295393
    20  H    5.917593   5.027840   5.280445   5.281388   4.174984
    21  O    5.321949   4.215599   3.376165   2.806964   2.347947
    22  O    6.131371   4.958599   4.250874   4.073683   3.614234
    23  O    3.357953   2.311323   2.645622   3.425612   3.202405
    24  O    2.212223   1.450666   2.505689   3.338859   3.183588
                    6          7          8          9         10
     6  C    0.000000
     7  H    1.328457   0.000000
     8  C    1.538192   2.264865   0.000000
     9  O    2.375937   3.268043   1.207383   0.000000
    10  C    2.570391   2.709220   1.488862   2.388581   0.000000
    11  H    3.065956   3.385678   3.723346   4.693004   3.739997
    12  H    4.169222   3.863451   5.643744   6.236590   6.504945
    13  H    2.938064   2.405229   4.401668   5.243403   5.009406
    14  H    3.502190   3.912373   4.739089   4.886755   6.015169
    15  H    2.863773   3.413717   4.284045   4.711821   5.389909
    16  H    2.144903   2.536369   2.799058   2.845289   4.074734
    17  H    2.151608   3.244062   2.794837   2.635747   4.251423
    18  H    3.519991   3.763251   2.153284   2.579578   1.100779
    19  H    2.817079   2.960683   2.157550   3.154107   1.104771
    20  H    2.900925   2.513181   2.156943   3.083133   1.101831
    21  O    1.400844   2.187087   2.488284   3.327530   3.191963
    22  O    2.288029   2.495150   2.875722   3.948120   2.845145
    23  O    2.595812   1.301356   3.472625   4.433052   3.661188
    24  O    3.146738   2.117579   3.970423   4.662134   4.426669
                   11         12         13         14         15
    11  H    0.000000
    12  H    5.389147   0.000000
    13  H    3.867820   1.777581   0.000000
    14  H    5.492262   2.434533   3.089882   0.000000
    15  H    3.938096   2.545829   2.430021   1.774949   0.000000
    16  H    5.118540   3.835528   3.450712   2.489566   3.101887
    17  H    4.541727   4.340694   3.937223   2.470585   2.496270
    18  H    4.598582   7.542066   6.092065   6.875227   6.327994
    19  H    2.929877   6.595328   4.974435   6.307199   5.380964
    20  H    4.212172   6.363844   4.845437   6.178950   5.687242
    21  O    1.866360   4.250156   2.922436   3.829418   2.538114
    22  O    1.002657   5.109696   3.485023   5.153536   3.817121
    23  O    4.189375   3.592693   2.199732   4.314855   4.015810
    24  O    5.321534   3.371489   2.611510   3.945086   4.211343
                   16         17         18         19         20
    16  H    0.000000
    17  H    1.761179   0.000000
    18  H    4.796723   4.902044   0.000000
    19  H    4.701746   4.641321   1.781438   0.000000
    20  H    4.164518   4.748592   1.772817   1.766805   0.000000
    21  O    3.303928   2.720661   4.139692   2.931258   3.680453
    22  O    4.402290   4.073894   3.792733   2.153338   3.245625
    23  O    3.210416   4.275093   4.680177   3.889050   3.109012
    24  O    2.798624   4.266111   5.340768   4.891497   3.855058
                   21         22         23         24
    21  O    0.000000
    22  O    1.445251   0.000000
    23  O    3.278533   3.375963   0.000000
    24  O    4.095365   4.512290   1.324069   0.000000
 Symmetry turned off by external request.
 Stoichiometry    C7H11O6(2)
 Framework group  C1[X(C7H11O6)]
 Deg. of freedom    66
 Full point group                 C1      NOp   1
 Rotational constants (GHZ):      1.1951918      0.5274285      0.5133605
 Leave Link  202 at Sat Feb  6 16:47:58 2021, MaxMem=    33554432 cpu:         0.0
 (Enter /apps/applications/gaussian/G09.D01/2/default/g09/l716.exe)
 Dipole        =-1.96891916D+00-1.78153115D-01 3.11353154D-01
 Polarizability= 1.13712007D+02 3.02493809D+01 1.14741673D+02
                 2.58722443D+01 1.42930166D+01 8.94548238D+01
 HyperPolar    = 9.60045260D+01 1.20085795D+02 1.59893313D+02
                 8.95699319D+02-2.23211361D+02-1.28155328D+02
                 1.38188022D+02-5.85305472D+01 5.00964783D+01
                 1.37704499D+02
 Full mass-weighted force constant matrix:
 Low frequencies ----2541.5921   -4.1628   -2.5479   -1.3176    1.6053    1.8500
 Low frequencies ---    3.2503   19.8726   32.5333
 ******    1 imaginary frequencies (negative Signs) ****** 
 Diagonal vibrational polarizability:
      348.4049192     169.5285458     109.7482518
 Harmonic frequencies (cm**-1), IR intensities (KM/Mole), Raman scattering
 activities (A**4/AMU), depolarization ratios for plane and unpolarized
[...]
 63,-0.00000450,0.00002621,-0.00002401,-0.00015608,-0.00079403,-0.00021
 091,-0.00164579,0.00038140,0.00110886,-0.00015028,-0.00378502,-0.00711
 353,-0.04177505,0.00129950,-0.00176676,0.00136567,0.02054892,-0.085269
 83,-0.14249669,0.00007790,-0.00001771,-0.00002790,0.00000410,-0.000019
 58,-0.00003677,0.00002619,-0.00001498,-0.00003884,-0.00000312,0.000007
 17,-0.00003063,0.00001202,0.00000249,-0.00001681,0.00000274,-0.0000263
 2,-0.00004597,0.00000719,-0.00003351,-0.00007197,-0.02247848,0.1045313
 9,0.18396369,0.00012397,0.00002527,0.00019121,-0.00005087,-0.00002901,
 -0.00053962,-0.00009881,0.00005984,0.00012494,0.00000147,-0.00006402,0
 .00012049,-0.00047526,0.00036843,0.00045878,0.00123836,-0.00066136,0.0
 0015205,0.00013481,0.00015703,-0.00033628,-0.01823754,0.01297811,-0.01
 718420,0.00090717,-0.00152367,0.00071838,-0.20348160,0.04016882,0.0050
 5316,-0.00002211,0.00018375,0.00005071,0.00001820,-0.00001949,-0.00002
 808,0.00007451,-0.00002640,-0.00000705,-0.00000250,0.00003010,-0.00000
 157,0.00006959,0.00001282,0.00000124,-0.00002347,-0.00000749,-0.000137
 50,0.00005702,0.00003408,-0.00010549,-0.00735463,0.00681262,0.00626086
 ,0.24718681,0.00002922,-0.00001958,0.00006382,0.00000841,0.00002598,0.
 00010762,0.00007019,-0.00004698,0.00004554,0.00000208,0.00002259,-0.00
 002207,0.00016536,-0.00036171,-0.00012881,0.00012380,0.00080826,-0.000
 74513,-0.00057629,-0.00114100,-0.00040457,0.01587968,-0.00232862,0.010
 62694,-0.00052660,-0.00117842,0.00046622,0.03971124,-0.04041408,-0.003
 41717,0.00005252,0.00028829,0.00028972,-0.00001149,0.00000411,-0.00000
 908,-0.00005658,0.00001143,-0.00005471,0.00000293,0.00000186,-0.000013
 57,-0.00002143,0.00001218,-0.00002232,0.00000306,0.00003742,0.00004597
 ,0.00001773,0.00006213,0.00006853,0.01528796,-0.00289345,-0.00577440,-
 0.05294809,0.04495072,0.00032013,0.00002208,0.00025492,-0.00031003,0.0
 0000997,-0.00097027,0.00003743,0.00003402,0.00016521,0.00004644,-0.000
 05565,0.00007026,0.00014305,-0.00003398,0.00008248,-0.00043302,-0.0007
 6144,-0.00091340,0.00027951,0.00145740,-0.00029241,-0.02719912,0.00896
 141,-0.00337398,0.00068777,0.00291251,-0.00283278,0.00215995,-0.002163
 68,-0.03443837,0.00051521,0.00008488,0.00034293,0.00000172,-0.00002380
 ,-0.00004907,0.00000587,-0.00001997,-0.00007911,-0.00001272,0.00002696
 ,-0.00002494,0.00000089,0.00000586,-0.00004649,-0.00004978,0.00002993,
 0.00006600,-0.00002007,0.00008722,0.00002773,0.01533878,-0.00682056,-0
 .00159561,0.00290263,-0.00252972,0.04278951,-0.00011711,0.00000797,0.0
 0002106,0.00015334,-0.00004196,0.00029171,-0.00008877,0.00000044,0.000
 01160,-0.00006293,0.00003263,-0.00003695,-0.00013959,-0.00017460,-0.00
 001235,0.00039601,0.00109994,-0.00088584,-0.00016204,-0.00171349,0.000
 03566,0.00806923,0.00117989,0.00117687,-0.00245378,0.00110309,-0.00102
 235,-0.07513625,-0.07771050,0.01783290,0.00006745,0.00002159,0.0000016
 7,0.00000256,-0.00000379,0.00001308,0.00003319,-0.00001889,0.00004724,
 0.00001615,-0.00000829,-0.00000073,0.00001315,0.00000088,0.00001624,0.
 00009254,0.00003690,-0.00010469,0.00003280,0.00000200,0.00001535,0.004
 28984,-0.00150210,-0.00126109,-0.01927909,-0.01727071,0.00432376,0.084
 68255,-0.00005050,-0.00004695,0.00008879,0.00017316,0.00005540,0.00042
 268,0.00003066,-0.00008198,0.00002437,-0.00002679,0.00005852,-0.000067
 53,0.00021155,-0.00050222,-0.00015633,0.00111364,0.00208789,-0.0016096
 8,-0.00085907,-0.00219343,-0.00036434,-0.00348122,-0.01986403,0.022514
 66,0.00048816,0.00105992,-0.00086897,-0.07772068,-0.16464690,0.0284798
 8,-0.00001771,0.00004135,0.00005334,-0.00001555,0.00001062,0.00000889,
 -0.00004404,0.00001912,-0.00002591,0.00000976,-0.00001041,-0.00000563,
 -0.00002479,0.00000155,-0.00000424,0.00001577,0.00005567,0.00005673,0.
 00000469,0.00003777,0.00011024,-0.00847859,-0.01896555,-0.00502771,-0.
 00514820,0.00259493,0.00073172,0.09386521,0.19922372,0.00030517,0.0000
 4150,0.00027186,-0.00027086,-0.00008197,-0.00075098,0.00001474,0.00006
 945,0.00017824,0.00002976,-0.00004567,0.00005936,0.00002804,-0.0000558
 7,0.00008381,-0.00082485,-0.00118861,-0.00135720,0.00009110,-0.0003005
 6,-0.00135275,0.00886503,0.02853891,-0.01261778,-0.00220549,-0.0003280
 2,-0.00162838,0.01811467,0.02941658,-0.04003650,0.00013720,0.00000371,
 0.00002282,0.00000230,-0.00002831,-0.00004395,0.00001598,-0.00003722,-
 0.00006659,-0.00001194,0.00002549,-0.00002728,0.00000985,0.00000872,-0
 .00003983,-0.00003885,0.00004576,-0.00000606,-0.00000607,0.00005975,-0
 .00001314,-0.00612632,-0.01410434,0.00242709,0.00317608,0.00187952,0.0
 0381111,-0.02049512,-0.04436664,0.05004005,-0.00288003,0.00025089,-0.0
 0426118,0.00008012,-0.00229982,0.02000845,0.00154409,0.00197839,-0.001
 63873,0.00017530,-0.00209530,-0.00170657,-0.03957173,0.00639421,-0.026
 83347,-0.19664749,0.05114866,0.07453369,-0.04935481,-0.09107119,0.0125
 8574,-0.02914925,0.00665687,0.02782006,0.00392875,-0.00270660,-0.00188
 514,0.00269551,0.00188618,-0.00219902,-0.03956635,0.01980641,-0.026636
 73,-0.00005831,-0.00009911,0.00017942,-0.00102889,-0.00085040,0.000195
 74,-0.00044503,0.00020190,-0.00005667,-0.00056178,0.00003665,-0.001130
 77,-0.00141135,-0.00091238,0.00059816,-0.00016497,0.00032127,0.0010388
 5,-0.00024477,0.00001793,0.00005048,0.00028925,-0.00083712,0.00058028,
 -0.00055008,-0.00074706,-0.00042025,0.39109465,-0.00170537,0.00006117,
 -0.00203711,0.00081441,-0.00085005,0.00911006,0.00016087,0.00065407,-0
 .00132705,0.00037160,-0.00014143,-0.00058675,0.01640824,0.00046258,0.0
 0275041,0.00130001,-0.01619725,0.01681185,-0.02519035,-0.02775268,0.00
 671932,0.01229255,0.00048362,-0.00876051,-0.00030773,-0.00207550,-0.00
 095206,0.00078847,-0.00017096,-0.00148914,0.01039313,0.00078356,-0.005
 28574,-0.00003835,0.00002489,0.00018157,-0.00007973,-0.00004119,0.0005
 6507,-0.00002883,-0.00005158,-0.00008795,-0.00030888,-0.00000124,-0.00
 026664,0.00032705,-0.00100063,0.00143342,0.00041808,0.00005787,0.00040
 876,-0.00030629,0.00002571,0.00017243,-0.00057311,-0.00004720,0.000482
 55,-0.00031926,-0.00052442,0.00030568,-0.05897956,0.09551146,0.0010809
 8,-0.00009818,0.00162705,-0.00009757,0.00080690,-0.00751497,-0.0012155
 4,-0.00084156,0.00024985,-0.00171531,-0.00017800,-0.00113619,-0.027810
 16,0.00388394,0.00386879,0.07731675,-0.00195466,-0.09350582,0.02047363
 ,0.02928219,-0.00269148,0.03012378,0.00064179,-0.01023949,-0.00139695,
 -0.00328642,-0.00094707,-0.00306263,-0.00091044,-0.00081834,-0.0082163
 6,-0.00769601,0.01593656,0.00006356,0.00002648,-0.00006523,0.00077564,
 0.00042278,0.00014504,0.00008310,0.00005077,0.00012731,0.00062549,-0.0
 0007779,-0.00025668,-0.00140603,0.00142659,-0.00335735,-0.00031421,-0.
 00025912,-0.00016131,-0.00006519,0.00007111,0.00011274,0.00027632,0.00
 007686,-0.00094202,0.00040510,-0.00023969,0.00036226,-0.01921997,-0.12
 115824,0.29345682,-0.00087863,-0.00016581,-0.00067105,0.00112387,0.000
 37341,0.00202968,0.00006213,-0.00068456,-0.00073805,0.00029482,0.00041
 889,0.00022945,-0.00460613,0.00237029,0.00379057,-0.05810460,0.0175732
 7,-0.02705054,0.00197699,0.00344670,-0.00024863,-0.00039517,-0.0002584
 9,-0.00170601,-0.00053068,0.00105902,0.00085770,-0.00123006,0.00110515
 ,0.00383562,-0.18692617,-0.02593745,0.09716191,-0.00011780,0.00013532,
 0.00020827,-0.00027240,0.00029557,0.00029344,0.00005107,-0.00009666,0.
 00022579,-0.00025643,-0.00007932,0.00026145,-0.00008803,0.00046439,-0.
 00123976,-0.00037917,-0.00049198,-0.00028491,-0.00017913,-0.00014286,-
 0.00007822,-0.00090538,0.00054809,0.00104993,-0.00011875,0.00008551,-0
 .00036214,-0.05765136,0.03961669,-0.06011253,0.31084538,0.00068304,-0.
 00005803,0.00096165,-0.00019615,0.00043093,-0.00439471,-0.00066911,-0.
 00012570,0.00034798,-0.00036833,0.00020750,-0.00000578,-0.00413025,0.0
 0070899,-0.00002572,0.01974599,-0.00476032,-0.00824068,0.00267843,0.00
 615176,-0.00057274,0.00178118,-0.00104146,-0.00002735,-0.00000415,0.00
 031364,-0.00010697,0.00036411,0.00096210,-0.00040929,-0.01278156,-0.01
 502584,0.03005622,0.00007494,-0.00002363,-0.00002487,0.00059640,0.0000
 5632,0.00009643,0.00000415,-0.00000122,0.00005421,0.00019973,-0.000130
 91,0.00016973,-0.00015807,0.00034525,-0.00053786,-0.00011793,-0.000192
 28,-0.00001629,-0.00009047,-0.00010603,-0.00002282,0.00028897,-0.00103
 815,-0.00155025,0.00021940,0.00001173,0.00001426,0.03152887,-0.0616130
 0,0.11269464,-0.03715815,0.07868985,-0.00037982,-0.00002500,-0.0001310
 4,0.00057860,-0.00000847,0.00049552,-0.00032891,0.00002102,-0.00014969
 ,-0.00039172,-0.00011272,-0.00040544,0.00613292,0.00075681,0.00021399,
 -0.02210437,-0.00647715,0.02333634,-0.00070348,0.00022979,0.00021351,0
 .00007367,-0.00212351,-0.00210299,-0.00015046,0.00020421,0.00030168,0.
 00516805,-0.00111813,-0.00053432,0.07224308,0.03355845,-0.08095311,0.0
 0004120,0.00003665,0.00006155,0.00022682,0.00006422,0.00015094,0.00002
 189,-0.00002229,0.00002630,0.00014141,-0.00003850,0.00014191,0.0004245
 6,-0.00036166,0.00088148,-0.00006314,0.00010360,-0.00033084,-0.0000919
 1,-0.00000670,0.00015517,-0.00156825,-0.00057539,-0.00257996,-0.000395
 31,0.00004377,0.00005670,-0.04260195,0.10724755,-0.19798592,-0.0160487
 5,-0.13091127,0.25930099,0.00921712,0.00025511,0.00662864,-0.01801808,
 0.00778976,-0.11163247,-0.00030794,-0.00336030,0.00436633,-0.00148154,
 0.00176228,0.00033785,-0.00297478,0.00990114,-0.00323538,-0.06689233,-
 0.13225102,0.05564441,0.06086999,0.17916979,-0.01412785,0.00991276,0.0
 0658926,-0.02486081,-0.00713187,0.00886355,0.00853998,-0.00306487,-0.0
 0352646,0.00679192,-0.00364802,0.00122716,-0.00034285,0.00009730,0.000
 06128,-0.00012920,0.00015325,0.00240184,-0.00031419,0.00061976,-0.0001
 5873,0.00014162,0.00066298,0.00000802,0.00076128,0.00270372,0.00117455
 ,-0.00025094,-0.00029042,-0.00076290,-0.00114815,0.00048750,-0.0001549
 7,-0.00090292,-0.00024961,0.00102506,-0.00139780,0.00147670,0.00247724
 ,-0.00020346,0.04298328,0.01527394,-0.01468893,-0.00055782,-0.00684657
 ,0.00044267,0.14139628,0.00565917,0.00383494,0.00742049,0.00374285,0.0
 0149980,-0.03141017,-0.00189533,-0.00325873,0.00254098,-0.00168391,0.0
 0078559,0.00075407,-0.00200459,0.00695835,-0.00265976,-0.05962682,-0.1
 3730090,0.04783935,0.04971877,0.07646801,-0.01410090,0.00523508,0.0068
 1319,-0.01451466,-0.00404974,0.00519138,0.00560601,-0.00197562,-0.0022
 7270,0.00373019,-0.00205211,0.00093908,-0.00061915,0.00049816,0.000072
 85,-0.00044753,0.00092701,0.00081876,0.00039899,0.00039417,0.00000951,
 0.00002895,0.00047876,-0.00012423,0.00042936,0.00167672,0.00068400,-0.
 00003290,-0.00025833,-0.00035954,-0.00096086,0.00028886,-0.00006278,-0
 .00049511,-0.00013648,0.00061383,-0.00075013,0.00095854,0.00145453,0.0
 0008192,0.03499808,0.01079038,-0.01094069,-0.00226735,-0.00325093,-0.0
 0055591,-0.08730002,0.07200379,-0.00107608,-0.00062136,-0.01017638,-0.
 05208256,0.00964157,-0.06176620,-0.00125552,0.00017213,-0.00723348,-0.
 00115124,0.00075536,-0.00004676,-0.00140058,0.00527631,-0.00132507,-0.
 02399614,-0.04887702,0.01924557,0.02332268,0.07273348,-0.00645563,0.00
 382730,0.00239513,-0.00964975,-0.00265349,0.00311010,0.00333314,-0.001
 77542,-0.00182916,0.00268762,-0.00143827,0.00038446,-0.00015955,-0.000
 90790,-0.00003755,0.00027177,0.00359731,0.00013899,-0.00183804,0.00023
 290,-0.00001158,0.00009385,0.00020342,-0.00015791,0.00035621,0.0012136
 3,0.00042968,-0.00025758,-0.00010999,-0.00037605,-0.00055182,0.0002716
 7,0.00000654,-0.00029435,0.00006686,0.00039426,-0.00058006,0.00093732,
 0.00128353,0.00009145,0.01633437,0.00685166,-0.00534723,0.00001447,-0.
 00251770,0.00038526,0.07298405,-0.05085684,0.10413655,-0.02916575,-0.0
 0043064,-0.06188854,-0.05443551,-0.00567923,0.09948070,-0.00259238,-0.
 00505518,0.02363751,-0.00045207,-0.00073990,0.00117849,0.00258712,-0.0
 0529682,0.00107959,0.03293912,0.06122980,-0.03058498,-0.05790856,-0.11
 526010,-0.00206522,-0.00735648,-0.00252274,0.01768476,0.00506628,-0.00
 606189,-0.00565228,0.00243013,0.00250818,-0.00500921,0.00252877,-0.000
 57879,0.00002555,-0.00256156,-0.00112867,0.00022230,-0.00066442,-0.001
 50686,0.00115051,-0.00059204,0.00030723,-0.00031061,-0.00025905,-0.000
 20035,-0.00060551,-0.00218595,-0.00074863,0.00031471,0.00004540,0.0006
 3828,0.00046732,-0.00040947,0.00010284,0.00062315,0.00007685,-0.000684
 01,0.00103488,-0.00122194,-0.00185775,0.00017212,-0.02346294,-0.010301
 34,0.00813812,-0.00109069,0.00432156,-0.00070140,-0.16598167,0.0586321
 5,-0.03513329,0.30467219,0.00207389,0.00965298,0.00077585,-0.00757137,
 -0.03945326,0.01310623,-0.00614431,0.01221067,0.01129028,0.00116053,0.
 00035998,-0.00053921,-0.00150793,0.00027431,-0.00043594,-0.01050776,-0
 .01872181,0.00724665,-0.00843607,0.02932664,-0.00705325,0.00129085,0.0
 0110124,-0.00210456,-0.00085942,0.00095440,0.00083388,-0.00052667,-0.0
 0018222,0.00045630,-0.00033984,0.00010835,-0.00013769,-0.00190784,-0.0
 0074607,0.00037921,0.00016617,-0.00009124,0.00097194,0.00005984,0.0000
 2358,-0.00000751,0.00017236,0.00040618,0.00005314,0.00064373,0.0008367
 3,-0.00048470,0.00003741,0.00000067,-0.00031568,0.00006652,-0.00001247
 ,-0.00006810,0.00001966,0.00003325,-0.00013361,0.00022895,0.00011890,0
 .00004247,0.00537680,0.00161013,-0.00171663,-0.00023198,-0.00048597,0.
 00006141,-0.00356419,-0.04224863,0.00174223,0.03029369,0.04495812,-0.0
 7907163,-0.00121112,-0.06674557,0.08800711,0.01718955,-0.12692110,0.01
 761170,0.01137515,-0.03267707,0.00378800,-0.00249198,-0.00170197,0.002
 20008,-0.00491796,0.00197215,0.03525948,0.06181315,-0.03047913,-0.0425
 8331,-0.10370159,0.00036652,-0.00784301,-0.00060860,0.01752052,0.00566
 373,-0.00717939,-0.00530706,0.00181825,0.00089673,-0.00482724,0.002719
 36,-0.00066686,-0.00018960,0.00250098,0.00165731,-0.00034012,-0.002259
 85,-0.00076871,-0.00285599,-0.00065990,-0.00016954,0.00010245,-0.00091
 035,0.00040819,-0.00060254,-0.00191071,-0.00044061,-0.00038712,-0.0000
 3391,0.00049878,0.00052842,-0.00029621,0.00028024,0.00076319,0.0003517
 3,-0.00036435,0.00110827,-0.00091383,-0.00107803,0.00053865,-0.0253158
 1,-0.01106281,0.00905944,-0.00143390,0.00495803,-0.00052323,0.01654902
 ,0.05944944,-0.02492959,-0.01324174,-0.02396987,0.26656378\\-0.0000007
 8,-0.00000009,-0.00000039,0.00000021,-0.00000003,0.00000011,0.00000019
 ,-0.00000017,-0.00000011,0.00000007,0.00000011,-0.00000021,-0.00000035
 ,0.00000008,0.00000001,0.00000013,0.00000017,-0.00000032,-0.00000002,-
 0.00000016,0.00000007,0.00000016,-0.00000022,-0.00000003,-0.00000040,0
 .00000070,-0.00000005,0.00000007,-0.00000010,0.00000022,0.00000022,-0.
 00000011,0.00000013,0.00000004,-0.00000012,-0.00000021,0.00000019,-0.0
 0000011,0.00000010,-0.00000012,0.00000009,-0.00000020,0.00000023,0.000
 00006,-0.00000009,-0.00000025,0.00000001,0.00000002,0.00000002,0.00000
 023,-0.00000002,-0.00000002,0.00000012,0.00000019,0.00000022,-0.000000
 07,0.00000003,-0.00000010,-0.00000020,0.00000006,-0.00000031,0.0000002
 7,-0.00000009,0.00000059,-0.00000034,0.00000026,0.00000032,-0.00000011
 ,0.00000025,-0.00000030,-0.00000004,0.00000027\\\@


                                                                                    A
                                                                                  AA
                                                                                 AAA
                                                                                AAAA
                                                                               AAAAA
                                                                              AAAAAA   KKKKKKKK
                                                                             AAAAAAA   KKKKKKKK
                                                                            AAAAAAAA   KKKKKKKK
                                       ZZZZZZZZZZZZZZZZZZZZ                AAAA  AAA   KKKKKKKK
                                       ZZZZZZZZZZZZZZZZZZZ                AAAA   AAA   KKKKKKKK          K
                                       ZZZZZZZZZZZZZZZZZZ                AAAA    AAA   KKKKKKKK         KKK
                                       ZZZZZZZZZZZZZZZZZ                AAAA     AAA   KKKKKKKK        KKKKK
                                       ZZZZZZZZZZZZZZZZ                AAAA      AAA   KKKKKKKK       KKKKKKK
                                                ZZZZZZ                AAAA       AAA   KKKKKKKK      KKKKKKK
                                               ZZZZZZ                AAAA        AAA   KKKKKKKK     KKKKKKK
                                              ZZZZZZ                AAAA         AAA   KKKKKKKK    KKKKKKK
                                             ZZZZZZ                AAAA          AAA   KKKKKKKK   KKKKKKK
                                            ZZZZZZ                AAAAAAAAAAAAAAAAAA   KKKKKKKK  KKKKKKK
                                           ZZZZZZ                AAAAAAAAAAAAAAAAAAA   KKKKKKKK KKKKKKK
                                          ZZZZZZ                AAAAAAAAAAAAAAAAAAAA   KKKKKKKKKKKKKKK
                                         ZZZZZZ                AAAAAAAAAAAAAAAAAAAAA   KKKKKKKKKKKKKK
                                        ZZZZZZ                AAAAAA        AAAAAAAA   KKKKKKKKKKKKK
                                       ZZZZZZ                AAAAAA         AAAAAAAA   KKKKKKKKKKKK
                                      ZZZZZZ                AAAAAA          AAAAAAAA   KKKKKKKKKKK
                                     ZZZZZZ                AAAAAA           AAAAAAAA   KKKKKKKKKKKK
                                    ZZZZZZ                AAAAAA            AAAAAAAA   KKKKKKKKKKKKK
                                   ZZZZZZ                AAAAAA             AAAAAAAA   KKKKKKKKKKKKKK
                                  ZZZZZZ                AAAAAA              AAAAAAAA   KKKKKKKKKKKKKKK
                                 ZZZZZZ                AAAAAA               AAAAAAAA   KKKKK KKKKKKKKKK
                                ZZZZZZ                AAAAAA                AAAAAAAA   KKKKK  KKKKKKKKKK
                               ZZZZZZ                AAAAAA                            KKKKK   KKKKKKKKKK
                              ZZZZZZ                AAAAAA                             KKKKK    KKKKKKKKKK
                             ZZZZZZ                                                    KKKKK     KKKKKKKKKK
                            ZZZZZZ                                                     KKKKK      KKKKKKKKKK
                           ZZZZZZ                                                      KKKKK       KKKKKKKKKK
                          ZZZZZZ                                                       KKKKK        KKKKKKKKKK
                         ZZZZZZZZZZZZZZZZZZZZZZZZZZZZZZZZZZZZZZZZ                      KKKKK         KKKKKKKKKK
                        ZZZZZZZZZZZZZZZZZZZZZZZZZZZZZZZZZZZZZZZZZ                      KKKKK          KKKKKKKKKK
                       ZZZZZZZZZZZZZZZZZZZZZZZZZZZZZZZZZZZZZZZZZZ                      KKKKK           KKKKKKKKKK
                       ZZZZZZZZZZZZZZZZZZZZZZZZZZZZZZZZZZZZZZZZZZ                      KKKKK            KKKKKKKKKK
                       ZZZZZZZZZZZZZZZZZZZZZZZZZZZZZZZZZZZZZZZZZZ                      KKKKK             KKKKKKKKKK
                       ZZZZZZZZZZZZZZZZZZZZZZZZZZZZZZZZZZZZZZZZZZ                      KKKKK              KKKKKKKKKK
                       ZZZZZZZZZZZZZZZZZZZZZZZZZZZZZZZZZZZZZZZZZZ                      KKKKK               KKKKKKKKKK
                       ZZZZZZZZZZZZZZZZZZZZZZZZZZZZZZZZZZZZZZZZZZ                      KKKKK                KKKKKKKKKK
                       ZZZZZZZZZZZZZZZZZZZZZZZZZZZZZZZZZZZZZZZZZZ                      KKKKK
                                                                                       KKKKK
                                                                                          (J.P.)
 Job cpu time:       0 days  0 hours  0 minutes  2.1 seconds.
 File lengths (MBytes):  RWF=     80 Int=      0 D2E=      0 Chk=      2 Scr=      1
 Normal termination of Gaussian 09 at Sat Feb  6 16:47:58 2021.
