22
Properties=species:S:1:pos:R:3 energy=-17655.217992580572 pbc="F F F"
O        0.46601500      -1.12428400       1.34785600
O        0.31659300       0.18933900       0.85372900
C       -1.02929100       0.59383100       0.91097500
O       -1.91126500      -0.19232800       1.12809200
C       -1.06940000       2.06466400       0.61386000
C       -0.77847100       2.89193100       1.87245700
C        0.69122000       2.84629600       2.28705600
C        1.63007200       3.76122700       1.55207100
O        2.80279000       3.85354000       1.82015600
C        1.05263500       4.63651900       0.40780300
O        0.71908200       4.14917600      -0.64369600
C        0.99090800       6.09005700       0.73479000
H        0.09145100      -1.68137400       0.59373200
H       -0.34468100       2.32575200      -0.19950000
H       -2.07214500       2.31940400       0.20453100
H       -1.10982400       3.93660900       1.70320100
H       -1.40613100       2.52298600       2.71326000
H        0.79033000       3.04518800       3.37831300
H        1.08625700       1.79879500       2.17924500
H        0.40935300       6.29757700       1.64264900
H        2.00382800       6.49581000       0.90625300
H        0.54720800       6.67354300      -0.08744100
