4
Properties=species:S:1:pos:R:3 energy=-1082.0462967629696 pbc="F F F"
C        1.10981200      -0.02356400       0.15479800
H        0.60061500      -0.97379200       0.06250200
H        0.60062600       0.82233400       0.59744200
H        2.13080100       0.07870400      -0.18852300
