 Entering Gaussian System, Link 0=g09
 Initial command:
 /apps/applications/gaussian/G09.D01/2/default/g09/l1.exe "/nobackup/chmrsh/Scratch/Gau-60949.inp" -scrdir="/nobackup/chmrsh/Scratch/"
 Entering Link 1 = /apps/applications/gaussian/G09.D01/2/default/g09/l1.exe PID=     60950.
  
 Copyright (c) 1988,1990,1992,1993,1995,1998,2003,2009,2013,
            Gaussian, Inc.  All Rights Reserved.
  
 This is part of the Gaussian(R) 09 program.  It is based on
 the Gaussian(R) 03 system (copyright 2003, Gaussian, Inc.),
 the Gaussian(R) 98 system (copyright 1998, Gaussian, Inc.),
 the Gaussian(R) 94 system (copyright 1995, Gaussian, Inc.),
 the Gaussian 92(TM) system (copyright 1992, Gaussian, Inc.),
 the Gaussian 90(TM) system (copyright 1990, Gaussian, Inc.),
 the Gaussian 88(TM) system (copyright 1988, Gaussian, Inc.),
 the Gaussian 86(TM) system (copyright 1986, Carnegie Mellon
 University), and the Gaussian 82(TM) system (copyright 1983,
 Carnegie Mellon University). Gaussian is a federally registered
 trademark of Gaussian, Inc.
  
 This software contains proprietary and confidential information,
 including trade secrets, belonging to Gaussian, Inc.
  
 This software is provided under written license and may be
 used, copied, transmitted, or stored only in accord with that
 written license.
  
 The following legend is applicable only to US Government
 contracts under FAR:
  
                    RESTRICTED RIGHTS LEGEND
  
 Use, reproduction and disclosure by the US Government is
 subject to restrictions as set forth in subparagraphs (a)
 and (c) of the Commercial Computer Software - Restricted
 Rights clause in FAR 52.227-19.
  
 Gaussian, Inc.
 340 Quinnipiac St., Bldg. 40, Wallingford CT 06492
  
  
 ---------------------------------------------------------------
 Warning -- This program may not be used in any manner that
 competes with the business of Gaussian, Inc. or will provide
 assistance to any competitor of Gaussian, Inc.  The licensee
 of this program is prohibited from giving any competitor of
 Gaussian, Inc. access to this program.  By using this program,
 the user acknowledges that Gaussian, Inc. is engaged in the
 business of creating and licensing software in the field of
 computational chemistry and represents and warrants to the
 licensee that it is not a competitor of Gaussian, Inc. and that
 it will not use this program in any manner prohibited above.
 ---------------------------------------------------------------
  

 Cite this work as:
 Gaussian 09, Revision D.01,
 M. J. Frisch, G. W. Trucks, H. B. Schlegel, G. E. Scuseria, 
 M. A. Robb, J. R. Cheeseman, G. Scalmani, V. Barone, B. Mennucci, 
 G. A. Petersson, H. Nakatsuji, M. Caricato, X. Li, H. P. Hratchian, 
 A. F. Izmaylov, J. Bloino, G. Zheng, J. L. Sonnenberg, M. Hada, 
 M. Ehara, K. Toyota, R. Fukuda, J. Hasegawa, M. Ishida, T. Nakajima, 
 Y. Honda, O. Kitao, H. Nakai, T. Vreven, J. A. Montgomery, Jr., 
 J. E. Peralta, F. Ogliaro, M. Bearpark, J. J. Heyd, E. Brothers, 
 K. N. Kudin, V. N. Staroverov, T. Keith, R. Kobayashi, J. Normand, 
 K. Raghavachari, A. Rendell, J. C. Burant, S. S. Iyengar, J. Tomasi, 
 M. Cossi, N. Rega, J. M. Millam, M. Klene, J. E. Knox, J. B. Cross, 
 V. Bakken, C. Adamo, J. Jaramillo, R. Gomperts, R. E. Stratmann, 
 O. Yazyev, A. J. Austin, R. Cammi, C. Pomelli, J. W. Ochterski, 
 R. L. Martin, K. Morokuma, V. G. Zakrzewski, G. A. Voth, 
 P. Salvador, J. J. Dannenberg, S. Dapprich, A. D. Daniels, 
 O. Farkas, J. B. Foresman, J. V. Ortiz, J. Cioslowski, 
 and D. J. Fox, Gaussian, Inc., Wallingford CT, 2013.
 
 ******************************************
 Gaussian 09:  ES64L-G09RevD.01 24-Apr-2013
                10-Jan-2021 
 ******************************************
 ----------------------------------------------------------------------
 #P b3lyp/3-21G scf=qc opt(calcall, ts, noeigentest, cartesian,maxcycle
 =100)
 ----------------------------------------------------------------------
 1/5=1,6=100,10=4,11=1,14=-1,18=10,26=3,38=1/1,3;
 2/12=2,17=6,18=5,29=2,40=1/2;
 3/5=5,11=2,16=1,25=1,30=1,71=2,74=-5,140=1/1,2,3;
 4//1;
 5/5=2,8=3,38=5/8;
 8/6=4,10=90,11=11/1;
 11/6=1,8=1,9=11,15=111,16=1/1,2,10;
 10/6=1/2;
 6/7=2,8=2,9=2,10=2,18=1,28=1/1;
 7/7=1,10=1,25=1/1,2,3,16;
 1/5=1,6=100,10=4,11=1,14=-1,18=10,26=3/3(3);
 2/29=1/2;
 7/7=1,8=1,9=1,25=1,44=-1/16;
 99/12=1/99;
 2/29=1/2;
 3/5=5,11=2,16=1,25=1,30=1,71=2,74=-5,140=1/1,2,3;
 4/5=5,16=3,69=1/1;
 5/5=2,8=3,38=5/8;
 8/6=4,10=90,11=11/1;
 11/6=1,8=1,9=11,15=111,16=1/1,2,10;
 10/6=1/2;
 7/7=1,10=1,25=1/1,2,3,16;
 1/5=1,6=100,10=4,11=1,14=-1,18=10,26=3/3(-8);
 2/29=1/2;
 6/7=2,8=2,9=2,10=2,18=1,19=2,28=1/1;
 7/7=1,8=1,9=1,25=1,44=-1/16;
 99/12=1/99;
 Leave Link    1 at Sun Jan 10 13:41:50 2021, MaxMem=           0 cpu:         0.1
 (Enter /apps/applications/gaussian/G09.D01/2/default/g09/l101.exe)
 ------------------------------
 Gaussian input prepared by ASE
 ------------------------------
 Symbolic Z-matrix:
 Charge =  0 Multiplicity = 2
 C                     0.93899   0.44213   0.71072 
 C                    -0.78576  -1.15273  -0.73974 
 O                    -0.71719  -2.30315  -0.90692 
 C                    -0.78275   0.15473  -0.49554 
 H                    -0.42677   0.86908  -1.23103 
 H                    -1.42599   0.59269   0.26105 
 H                     0.67677  -0.18619   1.52683 
 H                     0.845     1.49275   0.84242 
 H                     1.67769   0.0907    0.0322 
 
 NAtoms=      9 NQM=        9 NQMF=       0 NMMI=      0 NMMIF=      0
                NMic=       0 NMicF=      0.
                    Isotopes and Nuclear Properties:
 (Nuclear quadrupole moments (NQMom) in fm**2, nuclear magnetic moments (NMagM)
  in nuclear magnetons)

  Atom         1           2           3           4           5           6           7           8           9
 IAtWgt=          12          12          16          12           1           1           1           1           1
 AtmWgt=  12.0000000  12.0000000  15.9949146  12.0000000   1.0078250   1.0078250   1.0078250   1.0078250   1.0078250
 NucSpn=           0           0           0           0           1           1           1           1           1
 AtZEff=   0.0000000   0.0000000   0.0000000   0.0000000   0.0000000   0.0000000   0.0000000   0.0000000   0.0000000
 NQMom=    0.0000000   0.0000000   0.0000000   0.0000000   0.0000000   0.0000000   0.0000000   0.0000000   0.0000000
 NMagM=    0.0000000   0.0000000   0.0000000   0.0000000   2.7928460   2.7928460   2.7928460   2.7928460   2.7928460
 AtZNuc=   6.0000000   6.0000000   8.0000000   6.0000000   1.0000000   1.0000000   1.0000000   1.0000000   1.0000000
 Leave Link  101 at Sun Jan 10 13:41:50 2021, MaxMem=    33554432 cpu:         0.2
 (Enter /apps/applications/gaussian/G09.D01/2/default/g09/l103.exe)

 GradGradGradGradGradGradGradGradGradGradGradGradGradGradGradGradGradGrad
 Berny optimization.
 Initialization pass.
 No Z-matrix variables, so optimization will use Cartesian coordinates.
 Trust Radius=3.00D-01 FncErr=1.00D-07 GrdErr=1.00D-06
 Number of steps in this run=    100 maximum allowed number of steps=    100.
 Search for a saddle point of order  1.
 GradGradGradGradGradGradGradGradGradGradGradGradGradGradGradGradGradGrad

 Leave Link  103 at Sun Jan 10 13:41:50 2021, MaxMem=    33554432 cpu:         0.0
 (Enter /apps/applications/gaussian/G09.D01/2/default/g09/l202.exe)
 ---------------------------------------------------------------------------------------------------
                            Z-MATRIX (ANGSTROMS AND DEGREES)
   CD    Cent   Atom    N1       Length/X        N2       Alpha/Y        N3        Beta/Z          J
 ---------------------------------------------------------------------------------------------------
      1      1  C        0   0.938991          0.442135          0.710724
      2      2  C        0  -0.785758         -1.152727         -0.739736
      3      3  O        0  -0.717186         -2.303149         -0.906915
      4      4  C        0  -0.782755          0.154726         -0.495535
      5      5  H        0  -0.426767          0.869076         -1.231033
      6      6  H        0  -1.425989          0.592685          0.261050
      7      7  H        0   0.676769         -0.186195          1.526828
      8      8  H        0   0.845005          1.492748          0.842421
      9      9  H        0   1.677689          0.090701          0.032196
 ---------------------------------------------------------------------------------------------------
                         Z-Matrix orientation:                         
 ---------------------------------------------------------------------
 Center     Atomic      Atomic             Coordinates (Angstroms)
 Number     Number       Type             X           Y           Z
 ---------------------------------------------------------------------
      1          6           0        0.938991    0.442135    0.710724
      2          6           0       -0.785758   -1.152727   -0.739736
      3          8           0       -0.717186   -2.303149   -0.906915
      4          6           0       -0.782755    0.154726   -0.495535
      5          1           0       -0.426767    0.869076   -1.231033
      6          1           0       -1.425989    0.592685    0.261050
      7          1           0        0.676769   -0.186195    1.526828
      8          1           0        0.845005    1.492748    0.842421
      9          1           0        1.677689    0.090701    0.032196
 ---------------------------------------------------------------------
                    Distance matrix (angstroms):
                    1          2          3          4          5
     1  C    0.000000
     2  C    2.760829   0.000000
     3  O    3.591137   1.164526   0.000000
     4  C    2.121809   1.330067   2.492927   0.000000
     5  H    2.412052   2.111382   3.201938   1.085348   0.000000
     6  H    2.412053   2.111382   3.201937   1.085348   1.816907
     7  H    1.062818   2.865394   3.513931   2.517219   3.152330
     8  H    1.062998   3.487284   4.462001   2.496003   2.511092
     9  H    1.062818   2.865408   3.513954   2.517217   2.574946
                    6          7          8          9
     6  H    0.000000
     7  H    2.574964   0.000000
     8  H    2.511079   1.820869   0.000000
     9  H    3.152330   1.820010   1.820869   0.000000
 Stoichiometry    C3H5O(2)
 Framework group  C1[X(C3H5O)]
 Deg. of freedom    21
 Full point group                 C1      NOp   1
 Largest Abelian subgroup         C1      NOp   1
 Largest concise Abelian subgroup C1      NOp   1
                         Standard orientation:                         
 ---------------------------------------------------------------------
 Center     Atomic      Atomic             Coordinates (Angstroms)
 Number     Number       Type             X           Y           Z
 ---------------------------------------------------------------------
      1          6           0       -1.796070   -0.571582    0.000000
      2          6           0        0.854273    0.201634    0.000000
      3          8           0        1.794049   -0.486074    0.000000
      4          6           0       -0.273712    0.906423    0.000000
      5          1           0       -0.663453    1.354524    0.908453
      6          1           0       -0.663452    1.354525   -0.908454
      7          1           0       -1.550655   -1.062768   -0.909995
      8          1           0       -2.631100    0.086209   -0.000020
      9          1           0       -1.550678   -1.062742    0.910015
 ---------------------------------------------------------------------
 Rotational constants (GHZ):     18.4862301      4.3927052      3.7236227
 Leave Link  202 at Sun Jan 10 13:41:50 2021, MaxMem=    33554432 cpu:         0.0
 (Enter /apps/applications/gaussian/G09.D01/2/default/g09/l301.exe)
 Standard basis: 3-21G (6D, 7F)
 Ernie: Thresh=  0.10000D-02 Tol=  0.10000D-05 Strict=F.
 There are    46 symmetry adapted cartesian basis functions of A   symmetry.
 There are    46 symmetry adapted basis functions of A   symmetry.
    46 basis functions,    75 primitive gaussians,    46 cartesian basis functions
    16 alpha electrons       15 beta electrons
       nuclear repulsion energy       104.9835696324 Hartrees.
 IExCor=  402 DFT=T Ex+Corr=B3LYP ExCW=0 ScaHFX=  0.200000
 ScaDFX=  0.800000  0.720000  1.000000  0.810000 ScalE2=  1.000000  1.000000
 IRadAn=      0 IRanWt=     -1 IRanGd=            0 ICorTp=0 IEmpDi=  4
 NAtoms=    9 NActive=    9 NUniq=    9 SFac= 1.00D+00 NAtFMM=   60 NAOKFM=F Big=F
 Integral buffers will be    131072 words long.
 Raffenetti 2 integral format.
 Two-electron integral symmetry is turned on.
 Leave Link  301 at Sun Jan 10 13:41:50 2021, MaxMem=    33554432 cpu:         0.1
 (Enter /apps/applications/gaussian/G09.D01/2/default/g09/l302.exe)
 NPDir=0 NMtPBC=     1 NCelOv=     1 NCel=       1 NClECP=     1 NCelD=      1
         NCelK=      1 NCelE2=     1 NClLst=     1 CellRange=     0.0.
 One-electron integrals computed using PRISM.
 NBasis=    46 RedAO= T EigKep=  7.61D-03  NBF=    46
 NBsUse=    46 1.00D-06 EigRej= -1.00D+00 NBFU=    46
 Precomputing XC quadrature grid using
 IXCGrd= 4 IRadAn=           0 IRanWt=          -1 IRanGd=           0 AccXCQ= 0.00D+00.
 Generated NRdTot=       0 NPtTot=           0 NUsed=           0 NTot=          32
 NSgBfM=    46    46    46    46    46 MxSgAt=     9 MxSgA2=     9.
 Leave Link  302 at Sun Jan 10 13:41:51 2021, MaxMem=    33554432 cpu:         0.2
 (Enter /apps/applications/gaussian/G09.D01/2/default/g09/l303.exe)
 DipDrv:  MaxL=1.
 Leave Link  303 at Sun Jan 10 13:41:51 2021, MaxMem=    33554432 cpu:         0.1
 (Enter /apps/applications/gaussian/G09.D01/2/default/g09/l401.exe)
 ExpMin= 1.83D-01 ExpMax= 3.22D+02 ExpMxC= 3.22D+02 IAcc=1 IRadAn=         1 AccDes= 0.00D+00
 Harris functional with IExCor=  402 and IRadAn=       1 diagonalized for initial guess.
 HarFok:  IExCor=  402 AccDes= 0.00D+00 IRadAn=         1 IDoV= 1 UseB2=F ITyADJ=14
 ICtDFT=  3500011 ScaDFX=  1.000000  1.000000  1.000000  1.000000
 FoFCou: FMM=F IPFlag=           0 FMFlag=      100000 FMFlg1=           0
         NFxFlg=           0 DoJE=T BraDBF=F KetDBF=T FulRan=T
         wScrn=  0.000000 ICntrl=     500 IOpCl=  0 I1Cent=   200000004 NGrid=           0
         NMat0=    1 NMatS0=      1 NMatT0=    0 NMatD0=    1 NMtDS0=    0 NMtDT0=    0
 Petite list used in FoFCou.
 Harris En= -191.393245809316    
 JPrj=0 DoOrth=F DoCkMO=F.
 Initial guess <Sx>= 0.0000 <Sy>= 0.0000 <Sz>= 0.5000 <S**2>= 0.7500 S= 0.5000
 Leave Link  401 at Sun Jan 10 13:41:51 2021, MaxMem=    33554432 cpu:         0.2
 (Enter /apps/applications/gaussian/G09.D01/2/default/g09/l508.exe)
 Direct SCF.
 Tight linear equation convergence will be used.
 UB3LYP wavefunction.
 Quadratic Convergence SCF Method.
 Line search only if initial step raises energy.
 Integral symmetry usage will be decided dynamically.
 ReadGW:  IGet=1 IStart=         402 Next=         402 LGW=           0.
 Keep R1 and R2 ints in memory in canonical form, NReq=2054798.
 FoFCou: FMM=F IPFlag=           0 FMFlag=           0 FMFlg1=           0
         NFxFlg=           0 DoJE=F BraDBF=F KetDBF=F FulRan=T
         wScrn=  0.000000 ICntrl=     600 IOpCl=  0 I1Cent=           0 NGrid=           0
         NMat0=    1 NMatS0=   1081 NMatT0=    0 NMatD0=    1 NMtDS0=    0 NMtDT0=    0
 Symmetry not used in FoFCou.
 Iteration   1 EE= -191.203373489165                                    Grad=5.378D-01 Max rot=    6.0307 deg.
 Gradient too large for Newton-Raphson -- use scaled steepest descent instead.
 Alpha Gap=    -0.075 HL deriv= 2.77D-08
  Beta Gap=     0.251 HL deriv= 4.05D-01
     ILin= 1 X=0.000D+00 Y=-1.912033734892D+02 DE= 0.00D+00 F= -9.14D-01
     ILin= 2 X=3.000D-01 Y=-1.913487820036D+02 DE=-1.45D-01 F= -3.93D-02
     ILin= 3 X=4.000D-01 Y=-1.913382397551D+02 DE=-1.35D-01 F=  2.47D-01
     An  expanding polynomial of degree  3 produced  0.3143
     Minimum is close to point  2 DX=  1.43D-02 DF= -3.00D-04 DXR=  4.54D-02 DFR=  2.07D-03 which will be used.
 Iteration   2 EE= -191.348782003600     Delta-E=       -0.145408514435 Grad=1.545D-01 Max rot=    1.4592 deg.
 Gradient too large for Newton-Raphson -- use scaled steepest descent instead.
 Alpha Gap=     0.093 HL deriv= 9.44D-08
  Beta Gap=     0.257 HL deriv= 1.48D-02
     ILin= 1 X=0.000D+00 Y=-1.913487820036D+02 DE= 0.00D+00 F= -4.38D-02
     ILin= 2 X=3.000D-01 Y=-1.913585323359D+02 DE=-9.75D-03 F= -2.12D-02
     ILin= 3 X=5.000D-01 Y=-1.913612673960D+02 DE=-1.25D-02 F= -6.14D-03
     ILin= 4 X=8.000D-01 Y=-1.913597212284D+02 DE=-1.09D-02 F=  1.64D-02
     An  expanding polynomial of degree  4 produced  0.5816
 Iteration   3 EE= -191.361517696035     Delta-E=       -0.012735692435 Grad=6.246D-02 Max rot=    0.8876 deg.
 Gradient too large for Newton-Raphson -- use scaled steepest descent instead.
 Alpha Gap=     0.085 HL deriv= 6.42D-08
  Beta Gap=     0.267 HL deriv= 5.81D-02
     ILin= 1 X=0.000D+00 Y=-1.913615176960D+02 DE= 0.00D+00 F= -7.58D-03
     ILin= 2 X=4.000D-01 Y=-1.913631556048D+02 DE=-1.64D-03 F= -6.23D-04
     ILin= 3 X=7.000D-01 Y=-1.913625656513D+02 DE=-1.05D-03 F=  4.55D-03
     An  expanding polynomial of degree  3 produced  0.4364
     Minimum is close to point  2 DX=  3.64D-02 DF= -1.15D-05 DXR=  8.35D-02 DFR=  7.02D-03 which will be used.
 Iteration   4 EE= -191.363155604791     Delta-E=       -0.001637908756 Grad=3.147D-02 Max rot=    0.3805 deg.
 Gradient too large for Newton-Raphson -- use scaled steepest descent instead.
 Alpha Gap=     0.092 HL deriv= 5.05D-08
  Beta Gap=     0.265 HL deriv= 2.51D-02
     ILin= 1 X=0.000D+00 Y=-1.913631556048D+02 DE= 0.00D+00 F= -2.17D-03
     ILin= 2 X=5.000D-01 Y=-1.913638147245D+02 DE=-6.59D-04 F= -4.65D-04
     ILin= 3 X=1.000D+00 Y=-1.913636169384D+02 DE=-4.61D-04 F=  1.26D-03
     An  expanding polynomial of degree  3 produced  0.6346
 Iteration   5 EE= -191.363846184231     Delta-E=       -0.000690579440 Grad=2.326D-02 Max rot=    0.3461 deg.
 Gradient too large for Newton-Raphson -- use scaled steepest descent instead.
 Alpha Gap=     0.090 HL deriv= 4.92D-08
  Beta Gap=     0.268 HL deriv= 2.16D-02
     ILin= 1 X=0.000D+00 Y=-1.913638461842D+02 DE= 0.00D+00 F= -1.47D-03
     ILin= 2 X=5.000D-01 Y=-1.913641056435D+02 DE=-2.59D-04 F=  4.34D-04
     Accept linear search using points  1 and  2.
     An  expanding polynomial of degree  2 produced  0.2885
 Iteration   6 EE= -191.364112319966     Delta-E=       -0.000266135735 Grad=9.607D-03 Max rot=    0.2243 deg.
 QCNR:  CnvC1=3.07D-09 CnvC2=3.07D-08
 LinEq1:  Iter=  0 NonCon=     1 RMS=7.76D-04 Max=1.54D-02 NDo=     1
 AX will form     1 AO Fock derivatives at one time.
 LinEq1:  Iter=  1 NonCon=     1 RMS=9.70D-05 Max=9.36D-04 NDo=     1
 LinEq1:  Iter=  2 NonCon=     1 RMS=9.45D-05 Max=1.02D-03 NDo=     1
 LinEq1:  Iter=  3 NonCon=     1 RMS=6.49D-05 Max=7.23D-04 NDo=     1
 LinEq1:  Iter=  4 NonCon=     1 RMS=4.77D-05 Max=6.31D-04 NDo=     1
 LinEq1:  Iter=  5 NonCon=     1 RMS=1.95D-05 Max=2.69D-04 NDo=     1
 LinEq1:  Iter=  6 NonCon=     1 RMS=1.25D-05 Max=1.82D-04 NDo=     1
 LinEq1:  Iter=  7 NonCon=     1 RMS=5.96D-06 Max=6.12D-05 NDo=     1
 LinEq1:  Iter=  8 NonCon=     1 RMS=2.56D-06 Max=2.80D-05 NDo=     1
 LinEq1:  Iter=  9 NonCon=     1 RMS=6.20D-07 Max=5.37D-06 NDo=     1
 LinEq1:  Iter= 10 NonCon=     1 RMS=1.29D-07 Max=1.16D-06 NDo=     1
 LinEq1:  Iter= 11 NonCon=     1 RMS=3.65D-08 Max=3.87D-07 NDo=     1
 LinEq1:  Iter= 12 NonCon=     1 RMS=8.93D-09 Max=6.07D-08 NDo=     1
 LinEq1:  Iter= 13 NonCon=     0 RMS=1.36D-09 Max=1.16D-08 NDo=     1
 Linear equations converged to 3.074D-09 3.074D-08 after    13 iterations.
 Angle between quadratic step and gradient=  44.51 degrees.
     ILin= 1 X=0.000D+00 Y=-1.913641123200D+02 DE= 0.00D+00 F= -5.77D-04
     ILin= 2 X=1.000D+00 Y=-1.913643963150D+02 DE=-2.84D-04 F=  1.29D-05
     Accept linear search using points  1 and  2.
     An  expanding polynomial of degree  2 produced  0.9786
     Minimum is close to point  2 DX= -2.14D-02 DF= -1.38D-07 DXR=  2.19D-02 DFR=  4.87D-04 which will be used.
 Iteration   7 EE= -191.364396315041     Delta-E=       -0.000283995076 Grad=2.075D-04 Max rot=    0.0058 deg.
 QCNR:  CnvC1=2.08D-09 CnvC2=2.08D-08
 LinEq1:  Iter=  0 NonCon=     1 RMS=1.97D-05 Max=3.96D-04 NDo=     1
 LinEq1:  Iter=  1 NonCon=     1 RMS=8.08D-06 Max=1.72D-04 NDo=     1
 LinEq1:  Iter=  2 NonCon=     1 RMS=2.70D-06 Max=2.82D-05 NDo=     1
 LinEq1:  Iter=  3 NonCon=     1 RMS=2.85D-06 Max=4.24D-05 NDo=     1
 LinEq1:  Iter=  4 NonCon=     1 RMS=1.49D-06 Max=1.18D-05 NDo=     1
 LinEq1:  Iter=  5 NonCon=     1 RMS=1.07D-06 Max=1.32D-05 NDo=     1
 LinEq1:  Iter=  6 NonCon=     1 RMS=4.44D-07 Max=4.21D-06 NDo=     1
 LinEq1:  Iter=  7 NonCon=     1 RMS=1.85D-07 Max=1.77D-06 NDo=     1
 LinEq1:  Iter=  8 NonCon=     1 RMS=6.79D-08 Max=5.77D-07 NDo=     1
 LinEq1:  Iter=  9 NonCon=     1 RMS=8.23D-09 Max=6.12D-08 NDo=     1
 LinEq1:  Iter= 10 NonCon=     0 RMS=1.59D-09 Max=1.13D-08 NDo=     1
 Linear equations converged to 2.075D-09 2.075D-08 after    10 iterations.
 Angle between quadratic step and gradient=  30.58 degrees.
     ILin= 1 X=0.000D+00 Y=-1.913643963150D+02 DE= 0.00D+00 F= -3.50D-07
     ILin= 2 X=1.000D+00 Y=-1.913643964901D+02 DE=-1.75D-07 F= -2.29D-10
     Reject lnstep minimum 1.001D+00 FVal=-1.913643964901D+02 Lims=  0.00D+00  1.00D+00
     ILin= 3 X=2.000D+00 Y=-1.913643963157D+02 DE=-6.11D-10 F=  3.49D-07
     An  expanding polynomial of degree  3 produced  1.0009
     Minimum is close to point  2 DX=  8.74D-04 DF= -1.14D-13 DXR=  8.73D-04 DFR=  6.49D-07 which will be used.
 Iteration   8 EE= -191.364396490098     Delta-E=       -0.000000175057 Grad=1.285D-07 Max rot=    0.0000 deg.
 Rotation gradient small -- convergence achieved.
 SCF Done:  E(UB3LYP) =  -191.364396490     a.u. after    8 cycles
            Convg  =    0.1285D-06                    40 Fock formations.
              S**2 =  0.7664                  -V/T =  2.0075
 <Sx>= 0.0000 <Sy>= 0.0000 <Sz>= 0.5000 <S**2>= 0.7664 S= 0.5082
 <L.S>= 0.000000000000E+00
 Annihilation of the first spin contaminant:
 S**2 before annihilation     0.7664,   after     0.7501
 Leave Link  508 at Sun Jan 10 13:42:18 2021, MaxMem=    33554432 cpu:        27.0
 (Enter /apps/applications/gaussian/G09.D01/2/default/g09/l801.exe)
 DoSCS=F DFT=T ScalE2(SS,OS)=  1.000000  1.000000
 Range of M.O.s used for correlation:     1    46
 NBasis=    46 NAE=    16 NBE=    15 NFC=     0 NFV=     0
 NROrb=     46 NOA=    16 NOB=    15 NVA=    30 NVB=    31

 **** Warning!!: The smallest alpha delta epsilon is  0.90540215D-01

 Leave Link  801 at Sun Jan 10 13:42:18 2021, MaxMem=    33554432 cpu:         0.1
 (Enter /apps/applications/gaussian/G09.D01/2/default/g09/l1101.exe)
 Using compressed storage, NAtomX=     9.
 Will process     10 centers per pass.
 Leave Link 1101 at Sun Jan 10 13:42:18 2021, MaxMem=    33554432 cpu:         0.1
 (Enter /apps/applications/gaussian/G09.D01/2/default/g09/l1102.exe)
 Symmetrizing basis deriv contribution to polar:
 IMax=3 JMax=2 DiffMx= 0.00D+00
 Leave Link 1102 at Sun Jan 10 13:42:18 2021, MaxMem=    33554432 cpu:         0.1
 (Enter /apps/applications/gaussian/G09.D01/2/default/g09/l1110.exe)
 Forming Gx(P) for the SCF density, NAtomX=     9.
 Integral derivatives from FoFJK, PRISM(SPDF).
 Do as many integral derivatives as possible in FoFJK.
 G2DrvN: MDV=      33554256.
 G2DrvN: will do    10 centers at a time, making    1 passes.
 Calling FoFCou, ICntrl=  3107 FMM=F I1Cent=   0 AccDes= 0.00D+00.
 FoFJK:  IHMeth= 1 ICntrl=    3107 DoSepK=F KAlg= 0 I1Cent=   0 FoldK=F
 IRaf=         0 NMat=   1 IRICut=       1 DoRegI=T DoRafI=F ISym2E= 0.
 FoFCou: FMM=F IPFlag=           0 FMFlag=      100000 FMFlg1=           0
         NFxFlg=           0 DoJE=F BraDBF=F KetDBF=F FulRan=T
         wScrn=  0.000000 ICntrl=    3107 IOpCl=  1 I1Cent=           0 NGrid=           0
         NMat0=    1 NMatS0=      1 NMatT0=    0 NMatD0=    1 NMtDS0=    0 NMtDT0=    0
 Symmetry not used in FoFCou.
 End of G2Drv F.D. properties file   721 does not exist.
 End of G2Drv F.D. properties file   722 does not exist.
 End of G2Drv F.D. properties file   788 does not exist.
 Leave Link 1110 at Sun Jan 10 13:42:28 2021, MaxMem=    33554432 cpu:         9.8
 (Enter /apps/applications/gaussian/G09.D01/2/default/g09/l1002.exe)
 Minotr:  UHF open shell wavefunction.
          IDoAtm=111111111
          Direct CPHF calculation.
          Differentiating once with respect to electric field.
                with respect to dipole field.
          Differentiating once with respect to nuclear coordinates.
          Requested convergence is 1.0D-08 RMS, and 1.0D-07 maximum.
          Secondary convergence is 1.0D-12 RMS, and 1.0D-12 maximum.
          NewPWx=T KeepS1=F KeepF1=F KeepIn=T MapXYZ=F SortEE=F KeepMc=T.
          MDV=      33554246 using IRadAn=       2.
 Generate precomputed XC quadrature information.
 Keep R1 and R2 ints in memory in canonical form, NReq=2035813.
 FoFCou: FMM=F IPFlag=           0 FMFlag=           0 FMFlg1=           0
         NFxFlg=           0 DoJE=F BraDBF=F KetDBF=F FulRan=T
         wScrn=  0.000000 ICntrl=     600 IOpCl=  0 I1Cent=           0 NGrid=           0
         NMat0=    1 NMatS0=   1081 NMatT0=    0 NMatD0=    1 NMtDS0=    0 NMtDT0=    0
 Symmetry not used in FoFCou.
          Solving linear equations simultaneously, MaxMat=       0.
          There are    30 degrees of freedom in the 1st order CPHF.  IDoFFX=6 NUNeed=     3.
     27 vectors produced by pass  0 Test12= 3.15D-15 3.33D-09 XBig12= 1.63D+02 8.18D+00.
 AX will form    27 AO Fock derivatives at one time.
     27 vectors produced by pass  1 Test12= 3.15D-15 3.33D-09 XBig12= 2.06D+01 8.16D-01.
     27 vectors produced by pass  2 Test12= 3.15D-15 3.33D-09 XBig12= 1.59D-01 8.21D-02.
     27 vectors produced by pass  3 Test12= 3.15D-15 3.33D-09 XBig12= 1.04D-03 8.14D-03.
     27 vectors produced by pass  4 Test12= 3.15D-15 3.33D-09 XBig12= 5.71D-06 5.43D-04.
     26 vectors produced by pass  5 Test12= 3.15D-15 3.33D-09 XBig12= 1.79D-08 2.32D-05.
      8 vectors produced by pass  6 Test12= 3.15D-15 3.33D-09 XBig12= 3.83D-11 1.00D-06.
      2 vectors produced by pass  7 Test12= 3.15D-15 3.33D-09 XBig12= 4.97D-14 3.72D-08.
 InvSVY:  IOpt=1 It=  1 EMax= 6.22D-15
 Solved reduced A of dimension   171 with    30 vectors.
 FullF1:  Do perturbations    1 to     3.
 Isotropic polarizability for W=    0.000000       34.99 Bohr**3.
 End of Minotr F.D. properties file   721 does not exist.
 End of Minotr F.D. properties file   722 does not exist.
 End of Minotr F.D. properties file   788 does not exist.
 Leave Link 1002 at Sun Jan 10 13:42:38 2021, MaxMem=    33554432 cpu:         9.5
 (Enter /apps/applications/gaussian/G09.D01/2/default/g09/l601.exe)
 Copying SCF densities to generalized density rwf, IOpCl= 1 IROHF=0.

 **********************************************************************

            Population analysis using the SCF density.

 **********************************************************************

 Orbital symmetries:
 Alpha Orbitals:
       Occupied  (A) (A) (A) (A) (A) (A) (A) (A) (A) (A) (A) (A)
                 (A) (A) (A) (A)
       Virtual   (A) (A) (A) (A) (A) (A) (A) (A) (A) (A) (A) (A)
                 (A) (A) (A) (A) (A) (A) (A) (A) (A) (A) (A) (A)
                 (A) (A) (A) (A) (A) (A)
 Beta  Orbitals:
       Occupied  (A) (A) (A) (A) (A) (A) (A) (A) (A) (A) (A) (A)
                 (A) (A) (A)
       Virtual   (A) (A) (A) (A) (A) (A) (A) (A) (A) (A) (A) (A)
                 (A) (A) (A) (A) (A) (A) (A) (A) (A) (A) (A) (A)
                 (A) (A) (A) (A) (A) (A) (A)
 The electronic state is 2-A.
 Alpha  occ. eigenvalues --  -19.11011 -10.23516 -10.15154 -10.09255  -1.13695
 Alpha  occ. eigenvalues --   -0.78788  -0.66636  -0.54242  -0.48778  -0.48469
 Alpha  occ. eigenvalues --   -0.45975  -0.41166  -0.39952  -0.38815  -0.28887
 Alpha  occ. eigenvalues --   -0.12337
 Alpha virt. eigenvalues --   -0.03283   0.07982   0.10913   0.18469   0.20598
 Alpha virt. eigenvalues --    0.21615   0.21722   0.22862   0.41510   0.65035
 Alpha virt. eigenvalues --    0.66393   0.69271   0.73804   0.75310   0.80706
 Alpha virt. eigenvalues --    0.83194   0.92516   0.95701   0.98629   1.04684
 Alpha virt. eigenvalues --    1.10623   1.10851   1.13999   1.36748   1.49603
 Alpha virt. eigenvalues --    1.51705   1.56988   1.63344   2.11395   3.47426
  Beta  occ. eigenvalues --  -19.10596 -10.23004 -10.15296 -10.08157  -1.12791
  Beta  occ. eigenvalues --   -0.78207  -0.63939  -0.53639  -0.48483  -0.47848
  Beta  occ. eigenvalues --   -0.43216  -0.40666  -0.39119  -0.38279  -0.26120
  Beta virt. eigenvalues --   -0.02600  -0.00776   0.10096   0.12152   0.19166
  Beta virt. eigenvalues --    0.21225   0.21731   0.22260   0.23605   0.41707
  Beta virt. eigenvalues --    0.66828   0.66849   0.71124   0.74413   0.76031
  Beta virt. eigenvalues --    0.82710   0.83798   0.94125   0.95724   0.99016
  Beta virt. eigenvalues --    1.04941   1.11004   1.11178   1.14450   1.37808
  Beta virt. eigenvalues --    1.49965   1.53435   1.57255   1.65292   2.11991
  Beta virt. eigenvalues --    3.48124
          Condensed to atoms (all electrons):
               1          2          3          4          5          6
     1  C    5.615259  -0.056448   0.000476  -0.027083  -0.021704  -0.021704
     2  C   -0.056448   4.906570   0.562885   0.246289  -0.040054  -0.040054
     3  O    0.000476   0.562885   7.942844  -0.087858  -0.000065  -0.000065
     4  C   -0.027083   0.246289  -0.087858   5.575205   0.384041   0.384041
     5  H   -0.021704  -0.040054  -0.000065   0.384041   0.431969  -0.014714
     6  H   -0.021704  -0.040054  -0.000065   0.384041  -0.014714   0.431969
     7  H    0.374014  -0.000109   0.000020  -0.008827   0.000671  -0.000157
     8  H    0.361286   0.001702  -0.000001  -0.003039   0.000015   0.000015
     9  H    0.374014  -0.000109   0.000020  -0.008827  -0.000157   0.000671
               7          8          9
     1  C    0.374014   0.361286   0.374014
     2  C   -0.000109   0.001702  -0.000109
     3  O    0.000020  -0.000001   0.000020
     4  C   -0.008827  -0.003039  -0.008827
     5  H    0.000671   0.000015  -0.000157
     6  H   -0.000157   0.000015   0.000671
     7  H    0.513498  -0.029033  -0.028852
     8  H   -0.029033   0.524652  -0.029033
     9  H   -0.028852  -0.029033   0.513498
          Atomic-Atomic Spin Densities.
               1          2          3          4          5          6
     1  C    1.073868  -0.051675   0.001705  -0.137804  -0.016332  -0.016332
     2  C   -0.051675   0.395962  -0.098683   0.059530  -0.002116  -0.002116
     3  O    0.001705  -0.098683   0.235436  -0.002683   0.000060   0.000060
     4  C   -0.137804   0.059530  -0.002683  -0.108595   0.009902   0.009902
     5  H   -0.016332  -0.002116   0.000060   0.009902   0.016788   0.002136
     6  H   -0.016332  -0.002116   0.000060   0.009902   0.002136   0.016788
     7  H   -0.016618   0.001607  -0.000089   0.004527   0.000130   0.000374
     8  H   -0.025296   0.000674  -0.000005   0.006978   0.000829   0.000829
     9  H   -0.016618   0.001607  -0.000089   0.004527   0.000374   0.000130
               7          8          9
     1  C   -0.016618  -0.025296  -0.016618
     2  C    0.001607   0.000674   0.001607
     3  O   -0.000089  -0.000005  -0.000089
     4  C    0.004527   0.006978   0.004527
     5  H    0.000130   0.000829   0.000374
     6  H    0.000374   0.000829   0.000130
     7  H   -0.030823   0.002551   0.002083
     8  H    0.002551  -0.021817   0.002551
     9  H    0.002083   0.002551  -0.030823
 Mulliken charges and spin densities:
               1          2
     1  C   -0.598111   0.794899
     2  C    0.419328   0.304791
     3  O   -0.418256   0.135711
     4  C   -0.453942  -0.153716
     5  H    0.259997   0.011771
     6  H    0.259997   0.011771
     7  H    0.178775  -0.036259
     8  H    0.173436  -0.032707
     9  H    0.178775  -0.036259
 Sum of Mulliken charges =   0.00000   1.00000
 Mulliken charges and spin densities with hydrogens summed into heavy atoms:
               1          2
     1  C   -0.067125   0.689673
     2  C    0.419328   0.304791
     3  O   -0.418256   0.135711
     4  C    0.066053  -0.130175
 APT charges:
               1
     1  C   -0.138868
     2  C    0.586408
     3  O   -0.586707
     4  C   -0.126272
     5  H    0.116706
     6  H    0.116706
     7  H    0.005284
     8  H    0.021458
     9  H    0.005284
 Sum of APT charges =   0.00000
 APT charges with hydrogens summed into heavy atoms:
               1
     1  C   -0.106841
     2  C    0.586408
     3  O   -0.586707
     4  C    0.107140
 Electronic spatial extent (au):  <R**2>=            345.2402
 Charge=              0.0000 electrons
 Dipole moment (field-independent basis, Debye):
    X=             -0.8757    Y=              1.4309    Z=              0.0000  Tot=              1.6776
 Quadrupole moment (field-independent basis, Debye-Ang):
   XX=            -29.0606   YY=            -24.7655   ZZ=            -22.3822
   XY=             -0.9490   XZ=              0.0000   YZ=              0.0000
 Traceless Quadrupole moment (field-independent basis, Debye-Ang):
   XX=             -3.6578   YY=              0.6373   ZZ=              3.0206
   XY=             -0.9490   XZ=              0.0000   YZ=              0.0000
 Octapole moment (field-independent basis, Debye-Ang**2):
  XXX=              5.1020  YYY=             -1.2500  ZZZ=              0.0000  XYY=              1.0511
  XXY=              5.8459  XXZ=              0.0000  XZZ=              2.6068  YZZ=              0.2457
  YYZ=              0.0000  XYZ=              0.0000
 Hexadecapole moment (field-independent basis, Debye-Ang**3):
 XXXX=           -329.9965 YYYY=            -95.7826 ZZZZ=            -32.1180 XXXY=            -11.9453
 XXXZ=              0.0001 YYYX=            -10.9562 YYYZ=              0.0000 ZZZX=             -0.0001
 ZZZY=              0.0000 XXYY=            -70.4841 XXZZ=            -55.2765 YYZZ=            -17.7262
 XXYZ=             -0.0001 YYXZ=              0.0000 ZZXY=             -2.8440
 N-N= 1.049835696324D+02 E-N=-6.559244916204D+02  KE= 1.899490453090D+02
  Exact polarizability:  52.600  -2.364  29.108   0.000   0.000  23.254
 Approx polarizability:  91.686 -14.477  42.203   0.000   0.000  29.268
                          Isotropic Fermi Contact Couplings
        Atom                 a.u.       MegaHertz       Gauss      10(-4) cm-1
     1  C(13)              0.18110     203.59431      72.64751      67.91175
     2  C(13)              0.03238      36.40496      12.99020      12.14339
     3  O(17)              0.03195     -19.36517      -6.90998      -6.45953
     4  C(13)              0.00018       0.20201       0.07208       0.06738
     5  H(1)               0.00603      26.93108       9.60968       8.98324
     6  H(1)               0.00603      26.93106       9.60967       8.98323
     7  H(1)              -0.00960     -42.93072     -15.31875     -14.32015
     8  H(1)              -0.00897     -40.08293     -14.30259     -13.37023
     9  H(1)              -0.00960     -42.93075     -15.31876     -14.32016
 --------------------------------------------------------
       Center         ----  Spin Dipole Couplings  ----
                      3XX-RR        3YY-RR        3ZZ-RR
 --------------------------------------------------------
     1   Atom        0.235793      0.118335     -0.354128
     2   Atom        0.024361      0.176336     -0.200697
     3   Atom       -0.011737      0.357184     -0.345447
     4   Atom       -0.004863     -0.022569      0.027432
     5   Atom        0.001688      0.008587     -0.010276
     6   Atom        0.001688      0.008587     -0.010276
     7   Atom       -0.021829     -0.007423      0.029252
     8   Atom        0.040940      0.012551     -0.053491
     9   Atom       -0.021830     -0.007426      0.029256
 --------------------------------------------------------
                        XY            XZ            YZ
 --------------------------------------------------------
     1   Atom        0.528729     -0.000001      0.000000
     2   Atom        0.282957      0.000000      0.000000
     3   Atom        0.457015      0.000000      0.000000
     4   Atom       -0.067240      0.000000      0.000000
     5   Atom        0.001505      0.005410      0.006627
     6   Atom        0.001505     -0.005410     -0.006627
     7   Atom        0.011281     -0.019766      0.046950
     8   Atom       -0.033806      0.000002     -0.000001
     9   Atom        0.011283      0.019764     -0.046949
 --------------------------------------------------------


 ---------------------------------------------------------------------------------
              Anisotropic Spin Dipole Couplings in Principal Axis System
 ---------------------------------------------------------------------------------

       Atom             a.u.   MegaHertz   Gauss  10(-4) cm-1        Axes

              Baa    -0.3549   -47.626   -16.994   -15.886 -0.6669  0.7451 -0.0001
     1 C(13)  Bbb    -0.3541   -47.521   -16.957   -15.851  0.0000  0.0000  1.0000
              Bcc     0.7090    95.147    33.951    31.738  0.7451  0.6669  0.0000
 
              Baa    -0.2007   -26.932    -9.610    -8.983  0.0000  0.0000  1.0000
     2 C(13)  Bbb    -0.1926   -25.850    -9.224    -8.623  0.7935 -0.6085  0.0000
              Bcc     0.3933    52.781    18.834    17.606  0.6085  0.7935  0.0000
 
              Baa    -0.3454    24.996     8.919     8.338  0.0000  0.0000  1.0000
     3 O(17)  Bbb    -0.3201    23.163     8.265     7.726  0.8289 -0.5593  0.0000
              Bcc     0.6656   -48.160   -17.185   -16.064  0.5593  0.8289  0.0000
 
              Baa    -0.0815   -10.941    -3.904    -3.650  0.6593  0.7518  0.0000
     4 C(13)  Bbb     0.0274     3.681     1.314     1.228  0.0000  0.0000  1.0000
              Bcc     0.0541     7.260     2.591     2.422  0.7518 -0.6593  0.0000
 
              Baa    -0.0138    -7.381    -2.634    -2.462 -0.2966 -0.2523  0.9211
     5 H(1)   Bbb     0.0021     1.130     0.403     0.377  0.9004 -0.3955  0.1816
              Bcc     0.0117     6.251     2.230     2.085  0.3184  0.8831  0.3445
 
              Baa    -0.0138    -7.381    -2.634    -2.462  0.2966  0.2523  0.9211
     6 H(1)   Bbb     0.0021     1.130     0.403     0.377  0.9004 -0.3955 -0.1816
              Bcc     0.0117     6.251     2.230     2.085  0.3184  0.8831 -0.3445
 
              Baa    -0.0532   -28.391   -10.131    -9.470 -0.5563  0.6578 -0.5078
     7 H(1)   Bbb    -0.0093    -4.984    -1.779    -1.663  0.8218  0.5260 -0.2190
              Bcc     0.0626    33.376    11.909    11.133 -0.1231  0.5392  0.8332
 
              Baa    -0.0535   -28.540   -10.184    -9.520  0.0000  0.0000  1.0000
     8 H(1)   Bbb    -0.0099    -5.292    -1.888    -1.765  0.5536  0.8328  0.0000
              Bcc     0.0634    33.833    12.072    11.285  0.8328 -0.5536  0.0000
 
              Baa    -0.0532   -28.391   -10.131    -9.470 -0.5563  0.6578  0.5078
     9 H(1)   Bbb    -0.0093    -4.985    -1.779    -1.663  0.8218  0.5260  0.2190
              Bcc     0.0626    33.376    11.909    11.133  0.1231 -0.5391  0.8332
 

 ---------------------------------------------------------------------------------

 No NMR shielding tensors so no spin-rotation constants.
 Leave Link  601 at Sun Jan 10 13:42:38 2021, MaxMem=    33554432 cpu:         0.1
 (Enter /apps/applications/gaussian/G09.D01/2/default/g09/l701.exe)
 Compute integral second derivatives.
 ... and contract with generalized density number  0.
 Leave Link  701 at Sun Jan 10 13:42:38 2021, MaxMem=    33554432 cpu:         0.1
 (Enter /apps/applications/gaussian/G09.D01/2/default/g09/l702.exe)
 L702 exits ... SP integral derivatives will be done elsewhere.
 Leave Link  702 at Sun Jan 10 13:42:38 2021, MaxMem=    33554432 cpu:         0.0
 (Enter /apps/applications/gaussian/G09.D01/2/default/g09/l703.exe)
 Compute integral second derivatives, UseDBF=F ICtDFT=           0.
 Integral derivatives from FoFJK, PRISM(SPDF).
 Calling FoFJK, ICntrl=    100127 FMM=F ISym2X=0 I1Cent= 0 IOpClX= 1 NMat=1 NMatS=1 NMatT=0.
 FoFJK:  IHMeth= 1 ICntrl=  100127 DoSepK=F KAlg= 0 I1Cent=   0 FoldK=F
 IRaf=         0 NMat=   1 IRICut=       1 DoRegI=T DoRafI=F ISym2E= 0.
 FoFCou: FMM=F IPFlag=           0 FMFlag=      100000 FMFlg1=         800
         NFxFlg=           0 DoJE=F BraDBF=F KetDBF=F FulRan=T
         wScrn=  0.000000 ICntrl=  100127 IOpCl=  1 I1Cent=           0 NGrid=           0
         NMat0=    1 NMatS0=      1 NMatT0=    0 NMatD0=    1 NMtDS0=    0 NMtDT0=    0
 Symmetry not used in FoFCou.
 Leave Link  703 at Sun Jan 10 13:42:47 2021, MaxMem=    33554432 cpu:         8.7
 (Enter /apps/applications/gaussian/G09.D01/2/default/g09/l716.exe)
 Dipole        =-3.44535441D-01 5.62963639D-01 2.13843369D-07
 Polarizability= 5.26004750D+01-2.36437291D+00 2.91083147D+01
                 2.57071335D-06-5.33108702D-06 2.32542535D+01
 ***** Axes restored to original set *****
 -------------------------------------------------------------------
 Center     Atomic                   Forces (Hartrees/Bohr)
 Number     Number              X              Y              Z
 -------------------------------------------------------------------
      1        6          -0.007806087    0.003594819   -0.004561692
      2        6          -0.019301192    0.055161742   -0.002707650
      3        8           0.005569162   -0.058928632   -0.007186226
      4        6           0.011959346    0.008641247    0.009609644
      5        1          -0.002708385   -0.006124501   -0.005323499
      6        1          -0.004853837   -0.006717975   -0.002119697
      7        1          -0.000202737   -0.007863493    0.013737961
      8        1           0.003698879    0.016269511    0.005491127
      9        1           0.013644851   -0.004032718   -0.006939967
 -------------------------------------------------------------------
 Cartesian Forces:  Max     0.058928632 RMS     0.017573918
 Force constants in Cartesian coordinates: 
                1             2             3             4             5 
      1  0.227695D+00
      2 -0.730703D-01  0.663142D+00
      3 -0.312124D+00 -0.508640D-01  0.455116D+00
      4 -0.209306D-01 -0.167545D-01 -0.201621D-01  0.634190D-01
      5 -0.249650D-01 -0.533957D-02 -0.185491D-01 -0.667685D-01  0.164104D+01
      6 -0.216830D-01 -0.130507D-01 -0.123963D-01 -0.647399D-01  0.233034D+00
      7  0.417101D-02  0.123363D-02  0.366373D-02 -0.953462D-02  0.676858D-01
      8 -0.297458D-01 -0.333250D-02 -0.203598D-01  0.581182D-01 -0.111104D+01
      9 -0.207483D-02  0.386425D-03 -0.227647D-02  0.313930D-01 -0.153006D+00
     10  0.648339D-01  0.103437D-01  0.585191D-01 -0.263629D-01  0.260669D-01
     11  0.502195D-01 -0.145978D-01  0.345740D-01  0.200192D-01 -0.476095D+00
     12  0.659056D-01  0.787017D-02  0.259051D-01  0.632348D-01 -0.493854D-01
     13 -0.917670D-02  0.377178D-02 -0.151833D-01 -0.515485D-02 -0.397950D-02
     14  0.180318D-02  0.151690D-02  0.292278D-03 -0.115733D-01 -0.292708D-01
     15 -0.748764D-02  0.276462D-02 -0.112174D-01 -0.817337D-02 -0.124775D-01
     16 -0.194636D-01  0.130694D-02 -0.307997D-02  0.627066D-04 -0.585806D-02
     17  0.309837D-03  0.120908D-02  0.162112D-02  0.182326D-01 -0.219451D-01
     18 -0.113250D-01  0.113473D-02 -0.622661D-03 -0.622730D-03 -0.542868D-02
     19 -0.398668D-01 -0.422613D-01  0.813823D-01  0.811537D-03  0.247947D-02
     20 -0.465132D-01 -0.169487D+00  0.159741D+00  0.220192D-03  0.147082D-02
     21  0.895640D-01  0.164103D+00 -0.241998D+00 -0.272726D-04  0.164890D-02
     22 -0.167765D-01  0.284094D-01  0.267979D-01 -0.251744D-02  0.313035D-02
     23  0.383196D-01 -0.386923D+00 -0.369542D-01 -0.706447D-03  0.159348D-04
     24  0.286339D-01 -0.435909D-01 -0.378338D-01 -0.146049D-02  0.219783D-02
     25 -0.190486D+00  0.870207D-01  0.180186D+00  0.207181D-03  0.220851D-02
     26  0.836422D-01 -0.861885D-01 -0.695014D-01 -0.787384D-03  0.116334D-02
     27  0.170590D+00 -0.687534D-01 -0.174677D+00  0.558109D-03  0.196576D-02
                6             7             8             9            10 
      6  0.141435D+00
      7  0.331653D-01 -0.593874D-02
      8 -0.159413D+00 -0.652095D-01  0.111176D+01
      9 -0.476554D-01 -0.195006D-01  0.161318D+00  0.219660D-01
     10  0.643551D-01  0.692085D-02  0.441435D-01 -0.140385D-01  0.151213D+00
     11 -0.534354D-01 -0.535206D-02 -0.451009D-02 -0.118466D-01 -0.781709D-01
     12 -0.820513D-01 -0.232070D-01  0.212997D-01  0.284983D-01 -0.313253D+00
     13 -0.245506D-02  0.288909D-02 -0.222321D-02  0.110012D-02 -0.486151D-01
     14  0.187071D-01  0.247563D-02  0.435154D-02 -0.118072D-02 -0.656150D-01
     15  0.661015D-02  0.373439D-02 -0.346040D-02 -0.213422D-02  0.863172D-01
     16 -0.939685D-02  0.124157D-02 -0.552294D-02  0.297339D-02 -0.123369D+00
     17 -0.255656D-01 -0.116658D-02  0.255742D-02  0.409566D-02  0.682887D-01
     18 -0.593308D-02  0.201648D-02  0.311233D-03  0.130743D-02  0.137589D+00
     19  0.898858D-03 -0.260970D-04  0.743232D-04 -0.490806D-04 -0.500183D-02
     20 -0.539248D-03 -0.815579D-04 -0.243713D-03  0.177775D-03 -0.129623D-02
     21  0.911681D-04  0.561997D-04 -0.975499D-03 -0.176635D-03 -0.281503D-02
     22 -0.749763D-03  0.308392D-03  0.119997D-02  0.277519D-03 -0.884986D-02
     23 -0.371576D-03  0.235656D-03  0.874402D-03  0.277934D-03 -0.620130D-03
     24 -0.110291D-02  0.988940D-04  0.923713D-03  0.463240D-03 -0.611101D-02
     25  0.605405D-03 -0.314474D-04 -0.834581D-03 -0.809548D-04 -0.107688D-01
     26  0.634586D-03  0.178971D-03 -0.422680D-03 -0.222341D-03 -0.314047D-02
     27  0.100298D-02 -0.273752D-04  0.356510D-03  0.764686D-05 -0.105621D-01
               11            12            13            14            15 
     11  0.756459D+00
     12 -0.228777D-01  0.383336D+00
     13 -0.546550D-01  0.821174D-01  0.628613D-01
     14 -0.170283D+00  0.130170D+00  0.690255D-01  0.184696D+00
     15  0.139067D+00 -0.169606D+00 -0.804366D-01 -0.138736D+00  0.187012D+00
     16  0.790993D-01  0.145821D+00 -0.191242D-02  0.429933D-02  0.645680D-02
     17 -0.905282D-01 -0.830368D-01 -0.120587D-01  0.941207D-02  0.136976D-01
     18 -0.773550D-01 -0.174607D+00  0.147098D-01 -0.844612D-02 -0.112152D-01
     19  0.212126D-02 -0.121098D-01 -0.173884D-02 -0.427040D-03 -0.958551D-03
     20  0.301737D-03 -0.361989D-02 -0.562067D-03 -0.983854D-04 -0.704362D-03
     21  0.890843D-03 -0.616247D-02 -0.550457D-03 -0.425928D-03 -0.164594D-04
     22 -0.130845D-01 -0.842005D-02  0.878924D-03 -0.426075D-03  0.354123D-03
     23 -0.337988D-03 -0.497175D-03  0.465918D-04 -0.594978D-04 -0.417641D-03
     24 -0.884423D-02 -0.562688D-02  0.488450D-03 -0.460619D-03 -0.162256D-03
     25 -0.196690D-03 -0.888388D-04 -0.314309D-04  0.437835D-03  0.193644D-03
     26 -0.408343D-03  0.773017D-04  0.634622D-03 -0.264700D-03  0.266046D-03
     27 -0.173324D-03  0.314495D-03  0.209624D-03  0.800828D-04  0.729964D-03
               16            17            18            19            20 
     16  0.142965D+00
     17 -0.729816D-01  0.100008D+00
     18 -0.141779D+00  0.894341D-01  0.191596D+00
     19  0.603941D-03  0.437136D-03 -0.104851D-03  0.475149D-01
     20  0.677712D-03 -0.301630D-03  0.381580D-03  0.513198D-01  0.173256D+00
     21 -0.398152D-04  0.274579D-03  0.131469D-03 -0.844545D-01 -0.170650D+00
     22  0.461662D-03 -0.662728D-03  0.539524D-03  0.131736D-03 -0.684133D-02
     23 -0.425452D-03 -0.223570D-03  0.166168D-03  0.175226D-02 -0.126958D-01
     24  0.536728D-03 -0.266327D-03  0.419101D-03 -0.167379D-02  0.263032D-01
     25 -0.589917D-03 -0.398617D-03 -0.102271D-02 -0.242852D-02  0.307671D-02
     26 -0.595224D-03 -0.187602D-03 -0.197986D-03 -0.154959D-01  0.779759D-02
     27 -0.149225D-02 -0.254339D-03 -0.107613D-02  0.170694D-01 -0.110904D-01
               21            22            23            24            25 
     21  0.252304D+00
     22 -0.185207D-02  0.248772D-01
     23 -0.682003D-02 -0.358014D-01  0.404855D+00
     24  0.697102D-02 -0.188168D-01  0.430488D-01  0.384455D-01
     25  0.118930D-03  0.148585D-02 -0.280073D-02 -0.169581D-02  0.202643D+00
     26  0.119540D-01  0.240763D-01 -0.550588D-02 -0.193115D-01 -0.885131D-01
     27 -0.111443D-01  0.186964D-02  0.156773D-02 -0.157304D-02 -0.178215D+00
               26            27 
     26  0.840168D-01
     27  0.763013D-01  0.186415D+00
 Leave Link  716 at Sun Jan 10 13:42:47 2021, MaxMem=    33554432 cpu:         0.0
 (Enter /apps/applications/gaussian/G09.D01/2/default/g09/l103.exe)

 GradGradGradGradGradGradGradGradGradGradGradGradGradGradGradGradGradGrad
 Berny optimization.
 Search for a saddle point.
 Step number   1 out of a maximum of  100
 All quantities printed in internal units (Hartrees-Bohrs-Radians)
 Swapping is turned off.
 Second derivative matrix not updated -- analytic derivatives used.
 ITU=  0
     Eigenvalues ---   -0.17818  -0.01305  -0.00707   0.00869   0.00936
     Eigenvalues ---    0.01746   0.02372   0.02724   0.04125   0.07718
     Eigenvalues ---    0.09546   0.10545   0.11048   0.20181   0.31700
     Eigenvalues ---    0.43125   0.82102   0.91383   0.92070   0.96965
     Eigenvalues ---    2.65094
 Eigenvectors required to have negative eigenvalues:
                          X4        X1        Z4        Z1        X2
   1                    0.60817  -0.50309   0.42588  -0.34850  -0.15231
                          Z2        Y4        Y1        X8        Y3
   1                   -0.10333   0.10043  -0.06256   0.05790  -0.05586
 Eigenvalue     2 is  -1.30D-02 should be greater than     0.000000 Eigenvector:
                          X3        Z3        X2        Y7        Y9
   1                    0.51558   0.36857  -0.35187  -0.26301  -0.26076
                          Y1        Y8        Z2        X4        Y2
   1                   -0.23052  -0.22991  -0.20703  -0.16337   0.15444
 Eigenvalue     3 is  -7.07D-03 should be greater than     0.000000 Eigenvector:
                          Y9        Z8        Y7        X8        Z7
   1                    0.50252   0.45899  -0.42558  -0.30738  -0.27291
                          Z3        X7        Z9        Z6        X3
   1                    0.19160   0.16997  -0.14238  -0.13582  -0.12831
 RFO step:  Lambda0=2.758929469D-03 Lambda=-1.73885443D-02.
 Linear search not attempted -- option 19 set.
 Maximum step size (   0.300) exceeded in Quadratic search.
    -- Step size scaled by   0.300
 TrRot=  0.002107  0.007524 -0.000700  1.496106 -0.002678 -1.489845
 Variable       Old X    -DE/DX   Delta X   Delta X   Delta X     New X
                                 (Linear)    (Quad)   (Total)
    X1        1.77443  -0.00781   0.00000   0.04382   0.04060   1.81503
    Y1        0.83551   0.00359   0.00000  -0.03383  -0.01859   0.81693
    Z1        1.34307  -0.00456   0.00000   0.02314   0.02497   1.36805
    X2       -1.48487  -0.01930   0.00000  -0.13430  -0.11845  -1.60331
    Y2       -2.17834   0.05516   0.00000   0.03494   0.03632  -2.14202
    Z2       -1.39790  -0.00271   0.00000  -0.07674  -0.08350  -1.48140
    X3       -1.35528   0.00557   0.00000   0.13728   0.16688  -1.18841
    Y3       -4.35232  -0.05893   0.00000   0.01981   0.02424  -4.32808
    Z3       -1.71382  -0.00719   0.00000   0.05299   0.04047  -1.67335
    X4       -1.47919   0.01196   0.00000  -0.06932  -0.06895  -1.54814
    Y4        0.29239   0.00864   0.00000   0.02052   0.02089   0.31328
    Z4       -0.93643   0.00961   0.00000  -0.01773  -0.01793  -0.95435
    X5       -0.80647  -0.00271   0.00000  -0.04565  -0.05338  -0.85985
    Y5        1.64231  -0.00612   0.00000   0.00562   0.01403   1.65634
    Z5       -2.32632  -0.00532   0.00000  -0.01670  -0.01318  -2.33950
    X6       -2.69473  -0.00485   0.00000  -0.04888  -0.05382  -2.74855
    Y6        1.12001  -0.00672   0.00000  -0.00180  -0.01282   1.10720
    Z6        0.49331  -0.00212   0.00000   0.00674   0.00843   0.50174
    X7        1.27891  -0.00020   0.00000  -0.00844  -0.00485   1.27406
    Y7       -0.35186  -0.00786   0.00000   0.01669   0.02431  -0.32754
    Z7        2.88529   0.01374   0.00000   0.05774   0.05641   2.94170
    X8        1.59683   0.00370   0.00000   0.09251   0.07668   1.67351
    Y8        2.82088   0.01627   0.00000  -0.01053   0.00336   2.82425
    Z8        1.59195   0.00549   0.00000  -0.04208  -0.03492   1.55703
    X9        3.17037   0.01364   0.00000   0.01359   0.01529   3.18566
    Y9        0.17140  -0.00403   0.00000  -0.11899  -0.09175   0.07965
    Z9        0.06084  -0.00694   0.00000   0.01912   0.01925   0.08009
         Item               Value     Threshold  Converged?
 Maximum Force            0.058929     0.000450     NO 
 RMS     Force            0.017574     0.000300     NO 
 Maximum Displacement     0.166876     0.001800     NO 
 RMS     Displacement     0.056701     0.001200     NO 
 Predicted change in Energy=-4.188091D-03
 Lowest energy point so far.  Saving SCF results.
 GradGradGradGradGradGradGradGradGradGradGradGradGradGradGradGradGradGrad

 Leave Link  103 at Sun Jan 10 13:42:47 2021, MaxMem=    33554432 cpu:         0.0
 (Enter /apps/applications/gaussian/G09.D01/2/default/g09/l202.exe)
                          Input orientation:                          
 ---------------------------------------------------------------------
 Center     Atomic      Atomic             Coordinates (Angstroms)
 Number     Number       Type             X           Y           Z
 ---------------------------------------------------------------------
      1          6           0        0.960474    0.432299    0.723940
      2          6           0       -0.848436   -1.133510   -0.783924
      3          8           0       -0.628879   -2.290321   -0.885500
      4          6           0       -0.819241    0.165781   -0.505021
      5          1           0       -0.455014    0.876498   -1.238009
      6          1           0       -1.454471    0.585903    0.265509
      7          1           0        0.674204   -0.173329    1.556679
      8          1           0        0.885583    1.494528    0.823945
      9          1           0        1.685780    0.042151    0.042381
 ---------------------------------------------------------------------
                    Distance matrix (angstroms):
                    1          2          3          4          5
     1  C    0.000000
     2  C    2.827997   0.000000
     3  O    3.539632   1.181835   0.000000
     4  C    2.179165   1.329209   2.492677   0.000000
     5  H    2.459707   2.097881   3.191118   1.083998   0.000000
     6  H    2.462867   2.103561   3.206101   1.083392   1.828641
     7  H    1.068733   2.952763   3.484813   2.568264   3.191794
     8  H    1.069551   3.535343   4.420506   2.537349   2.535905
     9  H    1.069022   2.913282   3.414533   2.567112   2.630310
                    6          7          8          9
     6  H    0.000000
     7  H    2.602847   0.000000
     8  H    2.571635   1.833937   0.000000
     9  H    3.194782   1.833799   1.833182   0.000000
 Stoichiometry    C3H5O(2)
 Framework group  C1[X(C3H5O)]
 Deg. of freedom    21
 Full point group                 C1      NOp   1
 RotChk:  IX=2 Diff= 2.77D-02
 Largest Abelian subgroup         C1      NOp   1
 Largest concise Abelian subgroup C1      NOp   1
                         Standard orientation:                         
 ---------------------------------------------------------------------
 Center     Atomic      Atomic             Coordinates (Angstroms)
 Number     Number       Type             X           Y           Z
 ---------------------------------------------------------------------
      1          6           0       -1.799216   -0.588224   -0.000631
      2          6           0        0.895299    0.270343   -0.005179
      3          8           0        1.740268   -0.555923    0.001594
      4          6           0       -0.250220    0.944541    0.001057
      5          1           0       -0.631631    1.370192    0.922142
      6          1           0       -0.641989    1.388175   -0.906381
      7          1           0       -1.578754   -1.039969   -0.943771
      8          1           0       -2.634254    0.077666    0.056297
      9          1           0       -1.510694   -1.108634    0.887478
 ---------------------------------------------------------------------
 Rotational constants (GHZ):     16.7344117      4.4788590      3.7084801
 Leave Link  202 at Sun Jan 10 13:42:47 2021, MaxMem=    33554432 cpu:         0.0
 (Enter /apps/applications/gaussian/G09.D01/2/default/g09/l301.exe)
 Standard basis: 3-21G (6D, 7F)
 Ernie: Thresh=  0.10000D-02 Tol=  0.10000D-05 Strict=F.
 There are    46 symmetry adapted cartesian basis functions of A   symmetry.
 There are    46 symmetry adapted basis functions of A   symmetry.
    46 basis functions,    75 primitive gaussians,    46 cartesian basis functions
    16 alpha electrons       15 beta electrons
       nuclear repulsion energy       104.1936661730 Hartrees.
 IExCor=  402 DFT=T Ex+Corr=B3LYP ExCW=0 ScaHFX=  0.200000
 ScaDFX=  0.800000  0.720000  1.000000  0.810000 ScalE2=  1.000000  1.000000
 IRadAn=      0 IRanWt=     -1 IRanGd=            0 ICorTp=0 IEmpDi=  4
 NAtoms=    9 NActive=    9 NUniq=    9 SFac= 1.00D+00 NAtFMM=   60 NAOKFM=F Big=F
 Integral buffers will be    131072 words long.
 Raffenetti 2 integral format.
 Two-electron integral symmetry is turned on.
 Leave Link  301 at Sun Jan 10 13:42:47 2021, MaxMem=    33554432 cpu:         0.1
 (Enter /apps/applications/gaussian/G09.D01/2/default/g09/l302.exe)
 NPDir=0 NMtPBC=     1 NCelOv=     1 NCel=       1 NClECP=     1 NCelD=      1
         NCelK=      1 NCelE2=     1 NClLst=     1 CellRange=     0.0.
 One-electron integrals computed using PRISM.
 NBasis=    46 RedAO= T EigKep=  8.24D-03  NBF=    46
 NBsUse=    46 1.00D-06 EigRej= -1.00D+00 NBFU=    46
 Precomputing XC quadrature grid using
 IXCGrd= 4 IRadAn=           0 IRanWt=          -1 IRanGd=           0 AccXCQ= 0.00D+00.
 Generated NRdTot=       0 NPtTot=           0 NUsed=           0 NTot=          32
 NSgBfM=    46    46    46    46    46 MxSgAt=     9 MxSgA2=     9.
 Leave Link  302 at Sun Jan 10 13:42:47 2021, MaxMem=    33554432 cpu:         0.2
 (Enter /apps/applications/gaussian/G09.D01/2/default/g09/l303.exe)
 DipDrv:  MaxL=1.
 Leave Link  303 at Sun Jan 10 13:42:47 2021, MaxMem=    33554432 cpu:         0.0
 (Enter /apps/applications/gaussian/G09.D01/2/default/g09/l401.exe)
 Initial guess from the checkpoint file:  "/nobackup/chmrsh/Scratch/Gau-60950.chk"
 B after Tr=     0.000000    0.000000    0.000000
         Rot=    0.999971   -0.004218   -0.001081    0.006215 Ang=  -0.87 deg.
 Guess basis will be translated and rotated to current coordinates.
 JPrj=2 DoOrth=T DoCkMO=T.
 Initial guess <Sx>= 0.0000 <Sy>= 0.0000 <Sz>= 0.5000 <S**2>= 0.7668 S= 0.5084
 Generating alternative initial guess.
 ExpMin= 1.83D-01 ExpMax= 3.22D+02 ExpMxC= 3.22D+02 IAcc=1 IRadAn=         1 AccDes= 0.00D+00
 Harris functional with IExCor=  402 and IRadAn=       1 diagonalized for initial guess.
 HarFok:  IExCor=  402 AccDes= 0.00D+00 IRadAn=         1 IDoV= 1 UseB2=F ITyADJ=14
 ICtDFT=  3500011 ScaDFX=  1.000000  1.000000  1.000000  1.000000
 FoFCou: FMM=F IPFlag=           0 FMFlag=      100000 FMFlg1=           0
         NFxFlg=           0 DoJE=T BraDBF=F KetDBF=T FulRan=T
         wScrn=  0.000000 ICntrl=     500 IOpCl=  0 I1Cent=   200000004 NGrid=           0
         NMat0=    1 NMatS0=      1 NMatT0=    0 NMatD0=    1 NMtDS0=    0 NMtDT0=    0
 Petite list used in FoFCou.
 Harris En= -191.392398717247    
 Leave Link  401 at Sun Jan 10 13:42:48 2021, MaxMem=    33554432 cpu:         0.3
 (Enter /apps/applications/gaussian/G09.D01/2/default/g09/l508.exe)
 Direct SCF.
 Tight linear equation convergence will be used.
 UB3LYP wavefunction.
 Quadratic Convergence SCF Method.
 Line search only if initial step raises energy.
 Integral symmetry usage will be decided dynamically.
 ReadGW:  IGet=1 IStart=         402 Next=         402 LGW=           0.
 Keep R1 and R2 ints in memory in canonical form, NReq=2054798.
 FoFCou: FMM=F IPFlag=           0 FMFlag=           0 FMFlg1=           0
         NFxFlg=           0 DoJE=F BraDBF=F KetDBF=F FulRan=T
         wScrn=  0.000000 ICntrl=     600 IOpCl=  0 I1Cent=           0 NGrid=           0
         NMat0=    1 NMatS0=   1081 NMatT0=    0 NMatD0=    1 NMtDS0=    0 NMtDT0=    0
 Symmetry not used in FoFCou.
 Iteration   1 EE= -191.354238261069                                    Grad=1.611D-01 Max rot=    2.1891 deg.
 Gradient too large for Newton-Raphson -- use scaled steepest descent instead.
 Alpha Gap=     0.448 HL deriv= 5.28D-03
  Beta Gap=     0.560 HL deriv= 4.02D-03
     ILin= 1 X=0.000D+00 Y=-1.913542382611D+02 DE= 0.00D+00 F= -2.22D-02
     ILin= 2 X=3.000D-01 Y=-1.913598639189D+02 DE=-5.63D-03 F= -1.53D-02
     ILin= 3 X=6.000D-01 Y=-1.913634163598D+02 DE=-9.18D-03 F= -8.38D-03
     ILin= 4 X=1.100D+00 Y=-1.913647230388D+02 DE=-1.05D-02 F=  3.16D-03
     Accept linear search using points  3 and  4.
     An  expanding polynomial of degree  4 produced  0.8808
 Iteration   2 EE= -191.364860627901     Delta-E=       -0.010622366831 Grad=5.751D-02 Max rot=    0.8414 deg.
 Gradient too large for Newton-Raphson -- use scaled steepest descent instead.
 Alpha Gap=     0.451 HL deriv= 3.48D-03
  Beta Gap=     0.562 HL deriv= 9.23D-04
     ILin= 1 X=0.000D+00 Y=-1.913648606279D+02 DE= 0.00D+00 F= -4.07D-03
     ILin= 2 X=5.000D-01 Y=-1.913661722172D+02 DE=-1.31D-03 F= -1.18D-03
     ILin= 3 X=1.000D+00 Y=-1.913660388230D+02 DE=-1.18D-03 F=  1.71D-03
     An  expanding polynomial of degree  3 produced  0.7038
 Iteration   3 EE= -191.366292353941     Delta-E=       -0.001431726041 Grad=3.678D-02 Max rot=    0.6318 deg.
 Gradient too large for Newton-Raphson -- use scaled steepest descent instead.
 Alpha Gap=     0.449 HL deriv= 4.07D-03
  Beta Gap=     0.561 HL deriv= 1.04D-03
     ILin= 1 X=0.000D+00 Y=-1.913662923539D+02 DE= 0.00D+00 F= -1.94D-03
     ILin= 2 X=8.000D-01 Y=-1.913668420126D+02 DE=-5.50D-04 F=  5.69D-04
     Accept linear search using points  1 and  2.
     An  expanding polynomial of degree  2 produced  0.5656
 Iteration   4 EE= -191.366889111570     Delta-E=       -0.000596757629 Grad=2.424D-02 Max rot=    0.5184 deg.
 Gradient too large for Newton-Raphson -- use scaled steepest descent instead.
 Alpha Gap=     0.450 HL deriv= 2.49D-03
  Beta Gap=     0.562 HL deriv= 1.47D-04
     ILin= 1 X=0.000D+00 Y=-1.913668891116D+02 DE= 0.00D+00 F= -8.04D-04
     ILin= 2 X=6.000D-01 Y=-1.913671990204D+02 DE=-3.10D-04 F= -2.29D-04
     ILin= 3 X=1.300D+00 Y=-1.913671241003D+02 DE=-2.35D-04 F=  4.43D-04
     An  expanding polynomial of degree  3 produced  0.8384
 Iteration   5 EE= -191.367226294461     Delta-E=       -0.000337182891 Grad=2.189D-02 Max rot=    0.3806 deg.
 Gradient too large for Newton-Raphson -- use scaled steepest descent instead.
 Alpha Gap=     0.449 HL deriv= 3.02D-03
  Beta Gap=     0.561 HL deriv= 7.38D-04
     ILin= 1 X=0.000D+00 Y=-1.913672262945D+02 DE= 0.00D+00 F= -7.22D-04
     ILin= 2 X=7.000D-01 Y=-1.913673914848D+02 DE=-1.65D-04 F=  2.50D-04
     Accept linear search using points  1 and  2.
     An  expanding polynomial of degree  2 produced  0.4514
 Iteration   6 EE= -191.367410678787     Delta-E=       -0.000184384326 Grad=1.233D-02 Max rot=    0.3041 deg.
 Gradient too large for Newton-Raphson -- use scaled steepest descent instead.
 Alpha Gap=     0.450 HL deriv= 1.94D-03
  Beta Gap=     0.561 HL deriv= 6.65D-05
     ILin= 1 X=0.000D+00 Y=-1.913674106788D+02 DE= 0.00D+00 F= -2.10D-04
     ILin= 2 X=6.000D-01 Y=-1.913675110223D+02 DE=-1.00D-04 F= -1.25D-04
     ILin= 3 X=1.200D+00 Y=-1.913675602194D+02 DE=-1.50D-04 F= -3.94D-05
     ILin= 4 X=2.500D+00 Y=-1.913674913861D+02 DE=-8.07D-05 F=  1.45D-04
     An  expanding polynomial of degree  4 produced  1.4772
 Iteration   7 EE= -191.367565676876     Delta-E=       -0.000154998089 Grad=1.482D-02 Max rot=    0.1991 deg.
 Gradient too large for Newton-Raphson -- use scaled steepest descent instead.
 Alpha Gap=     0.449 HL deriv= 2.00D-03
  Beta Gap=     0.561 HL deriv= 5.44D-04
     ILin= 1 X=0.000D+00 Y=-1.913675656769D+02 DE= 0.00D+00 F= -3.39D-04
     ILin= 2 X=8.000D-01 Y=-1.913675762535D+02 DE=-1.06D-05 F=  3.12D-04
     Accept linear search using points  1 and  2.
     An  expanding polynomial of degree  2 produced  0.4113
 Iteration   8 EE= -191.367636165075     Delta-E=       -0.000070488199 Grad=5.661D-03 Max rot=    0.1529 deg.
 QCNR:  CnvC1=3.07D-09 CnvC2=3.07D-08
 LinEq1:  Iter=  0 NonCon=     1 RMS=4.34D-04 Max=7.43D-03 NDo=     1
 AX will form     1 AO Fock derivatives at one time.
 LinEq1:  Iter=  1 NonCon=     1 RMS=2.81D-04 Max=3.99D-03 NDo=     1
 LinEq1:  Iter=  2 NonCon=     1 RMS=1.49D-04 Max=1.89D-03 NDo=     1
 LinEq1:  Iter=  3 NonCon=     1 RMS=1.32D-04 Max=2.10D-03 NDo=     1
 LinEq1:  Iter=  4 NonCon=     1 RMS=6.26D-05 Max=1.06D-03 NDo=     1
 LinEq1:  Iter=  5 NonCon=     1 RMS=3.76D-05 Max=4.03D-04 NDo=     1
 LinEq1:  Iter=  6 NonCon=     1 RMS=1.28D-05 Max=1.19D-04 NDo=     1
 LinEq1:  Iter=  7 NonCon=     1 RMS=8.75D-06 Max=1.34D-04 NDo=     1
 LinEq1:  Iter=  8 NonCon=     1 RMS=3.37D-06 Max=3.27D-05 NDo=     1
 LinEq1:  Iter=  9 NonCon=     1 RMS=9.42D-07 Max=9.13D-06 NDo=     1
 LinEq1:  Iter= 10 NonCon=     1 RMS=2.17D-07 Max=1.95D-06 NDo=     1
 LinEq1:  Iter= 11 NonCon=     1 RMS=5.49D-08 Max=4.42D-07 NDo=     1
 LinEq1:  Iter= 12 NonCon=     1 RMS=1.30D-08 Max=1.16D-07 NDo=     1
 LinEq1:  Iter= 13 NonCon=     0 RMS=2.42D-09 Max=1.96D-08 NDo=     1
 Linear equations converged to 3.074D-09 3.074D-08 after    13 iterations.
 Angle between quadratic step and gradient=  37.37 degrees.
     ILin= 1 X=0.000D+00 Y=-1.913676361651D+02 DE= 0.00D+00 F= -1.49D-04
     ILin= 2 X=1.000D+00 Y=-1.913677104104D+02 DE=-7.42D-05 F=  1.61D-07
     Accept linear search using points  1 and  2.
     An  expanding polynomial of degree  2 produced  0.9989
     Minimum is close to point  2 DX= -1.08D-03 DF= -8.65D-11 DXR=  1.08D-03 DFR=  1.16D-06 which will be used.
 Iteration   9 EE= -191.367710410449     Delta-E=       -0.000074245375 Grad=3.064D-05 Max rot=    0.0004 deg.
 QCNR:  CnvC1=3.06D-10 CnvC2=3.06D-09
 LinEq1:  Iter=  0 NonCon=     1 RMS=2.16D-06 Max=3.00D-05 NDo=     1
 LinEq1:  Iter=  1 NonCon=     1 RMS=2.21D-06 Max=3.56D-05 NDo=     1
 LinEq1:  Iter=  2 NonCon=     1 RMS=1.93D-06 Max=2.95D-05 NDo=     1
 LinEq1:  Iter=  3 NonCon=     1 RMS=1.54D-06 Max=2.19D-05 NDo=     1
 LinEq1:  Iter=  4 NonCon=     1 RMS=7.60D-07 Max=8.69D-06 NDo=     1
 LinEq1:  Iter=  5 NonCon=     1 RMS=4.85D-07 Max=6.43D-06 NDo=     1
 LinEq1:  Iter=  6 NonCon=     1 RMS=2.32D-07 Max=3.05D-06 NDo=     1
 LinEq1:  Iter=  7 NonCon=     1 RMS=1.12D-07 Max=1.32D-06 NDo=     1
 LinEq1:  Iter=  8 NonCon=     1 RMS=2.01D-08 Max=1.98D-07 NDo=     1
 LinEq1:  Iter=  9 NonCon=     1 RMS=4.57D-09 Max=2.79D-08 NDo=     1
 LinEq1:  Iter= 10 NonCon=     1 RMS=1.21D-09 Max=1.09D-08 NDo=     1
 LinEq1:  Iter= 11 NonCon=     0 RMS=3.00D-10 Max=2.43D-09 NDo=     1
 Linear equations converged to 3.064D-10 3.064D-09 after    11 iterations.
 Angle between quadratic step and gradient=  63.25 degrees.
     ILin= 1 X=0.000D+00 Y=-1.913677104104D+02 DE= 0.00D+00 F= -2.40D-09
     ILin= 2 X=1.000D+00 Y=-1.913677104116D+02 DE=-1.20D-09
 Iteration  10 EE= -191.367710411647     Delta-E=       -0.000000001197 Grad=2.197D-09 Max rot=    0.0000 deg.
 Rotation gradient small -- convergence achieved.
 SCF Done:  E(UB3LYP) =  -191.367710412     a.u. after   10 cycles
            Convg  =    0.2197D-08                    47 Fock formations.
              S**2 =  0.7694                  -V/T =  2.0080
 <Sx>= 0.0000 <Sy>= 0.0000 <Sz>= 0.5000 <S**2>= 0.7694 S= 0.5096
 <L.S>= 0.000000000000E+00
 Annihilation of the first spin contaminant:
 S**2 before annihilation     0.7694,   after     0.7501
 Leave Link  508 at Sun Jan 10 13:43:19 2021, MaxMem=    33554432 cpu:        31.0
 (Enter /apps/applications/gaussian/G09.D01/2/default/g09/l801.exe)
 DoSCS=F DFT=T ScalE2(SS,OS)=  1.000000  1.000000
 Range of M.O.s used for correlation:     1    46
 NBasis=    46 NAE=    16 NBE=    15 NFC=     0 NFV=     0
 NROrb=     46 NOA=    16 NOB=    15 NVA=    30 NVB=    31
 Leave Link  801 at Sun Jan 10 13:43:19 2021, MaxMem=    33554432 cpu:         0.1
 (Enter /apps/applications/gaussian/G09.D01/2/default/g09/l1101.exe)
 Using compressed storage, NAtomX=     9.
 Will process     10 centers per pass.
 Leave Link 1101 at Sun Jan 10 13:43:19 2021, MaxMem=    33554432 cpu:         0.1
 (Enter /apps/applications/gaussian/G09.D01/2/default/g09/l1102.exe)
 Symmetrizing basis deriv contribution to polar:
 IMax=3 JMax=2 DiffMx= 0.00D+00
 Leave Link 1102 at Sun Jan 10 13:43:19 2021, MaxMem=    33554432 cpu:         0.1
 (Enter /apps/applications/gaussian/G09.D01/2/default/g09/l1110.exe)
 Forming Gx(P) for the SCF density, NAtomX=     9.
 Integral derivatives from FoFJK, PRISM(SPDF).
 Do as many integral derivatives as possible in FoFJK.
 G2DrvN: MDV=      33554256.
 G2DrvN: will do    10 centers at a time, making    1 passes.
 Calling FoFCou, ICntrl=  3107 FMM=F I1Cent=   0 AccDes= 0.00D+00.
 FoFJK:  IHMeth= 1 ICntrl=    3107 DoSepK=F KAlg= 0 I1Cent=   0 FoldK=F
 IRaf=         0 NMat=   1 IRICut=       1 DoRegI=T DoRafI=F ISym2E= 0.
 FoFCou: FMM=F IPFlag=           0 FMFlag=      100000 FMFlg1=           0
         NFxFlg=           0 DoJE=F BraDBF=F KetDBF=F FulRan=T
         wScrn=  0.000000 ICntrl=    3107 IOpCl=  1 I1Cent=           0 NGrid=           0
         NMat0=    1 NMatS0=      1 NMatT0=    0 NMatD0=    1 NMtDS0=    0 NMtDT0=    0
 Symmetry not used in FoFCou.
 End of G2Drv F.D. properties file   721 does not exist.
 End of G2Drv F.D. properties file   722 does not exist.
 End of G2Drv F.D. properties file   788 does not exist.
 Leave Link 1110 at Sun Jan 10 13:43:29 2021, MaxMem=    33554432 cpu:         9.8
 (Enter /apps/applications/gaussian/G09.D01/2/default/g09/l1002.exe)
 Minotr:  UHF open shell wavefunction.
          IDoAtm=111111111
          Direct CPHF calculation.
          Differentiating once with respect to electric field.
                with respect to dipole field.
          Differentiating once with respect to nuclear coordinates.
          Requested convergence is 1.0D-08 RMS, and 1.0D-07 maximum.
          Secondary convergence is 1.0D-12 RMS, and 1.0D-12 maximum.
          NewPWx=T KeepS1=F KeepF1=F KeepIn=T MapXYZ=F SortEE=F KeepMc=T.
          MDV=      33554246 using IRadAn=       2.
 Generate precomputed XC quadrature information.
 Keep R1 and R2 ints in memory in canonical form, NReq=2035813.
 FoFCou: FMM=F IPFlag=           0 FMFlag=           0 FMFlg1=           0
         NFxFlg=           0 DoJE=F BraDBF=F KetDBF=F FulRan=T
         wScrn=  0.000000 ICntrl=     600 IOpCl=  0 I1Cent=           0 NGrid=           0
         NMat0=    1 NMatS0=   1081 NMatT0=    0 NMatD0=    1 NMtDS0=    0 NMtDT0=    0
 Symmetry not used in FoFCou.
          Solving linear equations simultaneously, MaxMat=       0.
          There are    30 degrees of freedom in the 1st order CPHF.  IDoFFX=6 NUNeed=     3.
     27 vectors produced by pass  0 Test12= 3.15D-15 3.33D-09 XBig12= 1.73D+02 9.16D+00.
 AX will form    27 AO Fock derivatives at one time.
     27 vectors produced by pass  1 Test12= 3.15D-15 3.33D-09 XBig12= 2.05D+01 9.22D-01.
     27 vectors produced by pass  2 Test12= 3.15D-15 3.33D-09 XBig12= 1.69D-01 1.16D-01.
     27 vectors produced by pass  3 Test12= 3.15D-15 3.33D-09 XBig12= 1.19D-03 9.28D-03.
     27 vectors produced by pass  4 Test12= 3.15D-15 3.33D-09 XBig12= 4.87D-06 4.76D-04.
     25 vectors produced by pass  5 Test12= 3.15D-15 3.33D-09 XBig12= 1.90D-08 3.92D-05.
      9 vectors produced by pass  6 Test12= 3.15D-15 3.33D-09 XBig12= 4.30D-11 1.24D-06.
      2 vectors produced by pass  7 Test12= 3.15D-15 3.33D-09 XBig12= 7.96D-14 4.83D-08.
 InvSVY:  IOpt=1 It=  1 EMax= 5.33D-15
 Solved reduced A of dimension   171 with    30 vectors.
 FullF1:  Do perturbations    1 to     3.
 Isotropic polarizability for W=    0.000000       35.65 Bohr**3.
 End of Minotr F.D. properties file   721 does not exist.
 End of Minotr F.D. properties file   722 does not exist.
 End of Minotr F.D. properties file   788 does not exist.
 Leave Link 1002 at Sun Jan 10 13:43:39 2021, MaxMem=    33554432 cpu:         9.5
 (Enter /apps/applications/gaussian/G09.D01/2/default/g09/l701.exe)
 Compute integral second derivatives.
 ... and contract with generalized density number  0.
 Leave Link  701 at Sun Jan 10 13:43:39 2021, MaxMem=    33554432 cpu:         0.1
 (Enter /apps/applications/gaussian/G09.D01/2/default/g09/l702.exe)
 L702 exits ... SP integral derivatives will be done elsewhere.
 Leave Link  702 at Sun Jan 10 13:43:39 2021, MaxMem=    33554432 cpu:         0.0
 (Enter /apps/applications/gaussian/G09.D01/2/default/g09/l703.exe)
 Compute integral second derivatives, UseDBF=F ICtDFT=           0.
 Integral derivatives from FoFJK, PRISM(SPDF).
 Calling FoFJK, ICntrl=    100127 FMM=F ISym2X=0 I1Cent= 0 IOpClX= 1 NMat=1 NMatS=1 NMatT=0.
 FoFJK:  IHMeth= 1 ICntrl=  100127 DoSepK=F KAlg= 0 I1Cent=   0 FoldK=F
 IRaf=         0 NMat=   1 IRICut=       1 DoRegI=T DoRafI=F ISym2E= 0.
 FoFCou: FMM=F IPFlag=           0 FMFlag=      100000 FMFlg1=         800
         NFxFlg=           0 DoJE=F BraDBF=F KetDBF=F FulRan=T
         wScrn=  0.000000 ICntrl=  100127 IOpCl=  1 I1Cent=           0 NGrid=           0
         NMat0=    1 NMatS0=      1 NMatT0=    0 NMatD0=    1 NMtDS0=    0 NMtDT0=    0
 Symmetry not used in FoFCou.
 Leave Link  703 at Sun Jan 10 13:43:47 2021, MaxMem=    33554432 cpu:         8.6
 (Enter /apps/applications/gaussian/G09.D01/2/default/g09/l716.exe)
 Dipole        =-3.97371933D-01 5.99145225D-01 9.13107010D-04
 Polarizability= 5.32500047D+01-1.77702572D+00 3.02414459D+01
                -6.76583572D-02-2.66503888D-02 2.34575460D+01
 ***** Axes restored to original set *****
 -------------------------------------------------------------------
 Center     Atomic                   Forces (Hartrees/Bohr)
 Number     Number              X              Y              Z
 -------------------------------------------------------------------
      1        6          -0.008498959    0.002481411   -0.005455673
      2        6          -0.008413010    0.016502888   -0.002962684
      3        8           0.001504274   -0.023682276   -0.003360246
      4        6           0.010314730    0.010417908    0.008945293
      5        1          -0.003166480   -0.003835127   -0.004687649
      6        1          -0.004895336   -0.004496384   -0.002005137
      7        1           0.000292642   -0.005150486    0.009690945
      8        1           0.003419533    0.010896667    0.003964956
      9        1           0.009442606   -0.003134601   -0.004129805
 -------------------------------------------------------------------
 Cartesian Forces:  Max     0.023682276 RMS     0.008180914
 Force constants in Cartesian coordinates: 
                1             2             3             4             5 
      1  0.218815D+00
      2 -0.693269D-01  0.642760D+00
      3 -0.301775D+00 -0.486875D-01  0.448239D+00
      4 -0.401613D-01 -0.173774D-01 -0.336146D-01  0.998920D-01
      5 -0.258809D-01 -0.399411D-02 -0.187400D-01 -0.194618D+00  0.148759D+01
      6 -0.343283D-01 -0.130394D-01 -0.200059D-01 -0.660099D-01  0.153191D+00
      7  0.161499D-01  0.329775D-02  0.125568D-01 -0.505378D-01  0.191338D+00
      8 -0.204795D-01 -0.105480D-02 -0.135708D-01  0.154950D+00 -0.963386D+00
      9  0.711739D-02  0.220088D-02  0.345057D-02  0.299279D-01 -0.691797D-01
     10  0.667670D-01  0.105565D-01  0.582113D-01 -0.123090D-02  0.365436D-01
     11  0.450217D-01 -0.130136D-01  0.307157D-01  0.457722D-01 -0.470641D+00
     12  0.649625D-01  0.746128D-02  0.262783D-01  0.787850D-01 -0.488677D-01
     13 -0.810875D-02  0.312570D-02 -0.128109D-01 -0.761308D-02 -0.759316D-02
     14  0.577258D-03  0.904147D-03 -0.392020D-03 -0.887151D-02 -0.303975D-01
     15 -0.600668D-02  0.226281D-02 -0.891719D-02 -0.981186D-02 -0.145415D-01
     16 -0.158531D-01  0.119497D-02 -0.233639D-02 -0.103202D-02 -0.801561D-02
     17 -0.306536D-03  0.756705D-03  0.694458D-03  0.211482D-01 -0.219530D-01
     18 -0.100573D-01  0.101102D-02 -0.818902D-03 -0.108995D-03 -0.773124D-02
     19 -0.429845D-01 -0.418167D-01  0.851446D-01  0.105119D-02  0.268122D-02
     20 -0.456634D-01 -0.156420D+00  0.149079D+00  0.158528D-03  0.162146D-02
     21  0.932358D-01  0.153201D+00 -0.240968D+00 -0.234550D-03  0.163937D-02
     22 -0.179574D-01  0.206317D-01  0.250699D-01 -0.706967D-03  0.304310D-02
     23  0.298843D-01 -0.375845D+00 -0.259672D-01 -0.312858D-03 -0.329202D-03
     24  0.263478D-01 -0.321243D-01 -0.378331D-01 -0.287678D-04  0.205652D-02
     25 -0.176667D+00  0.897145D-01  0.169554D+00  0.338831D-03  0.250122D-02
     26  0.861740D-01 -0.940935D-01 -0.731313D-01 -0.849360D-03  0.148737D-02
     27  0.160504D+00 -0.722860D-01 -0.169425D+00  0.109585D-02  0.217275D-02
                6             7             8             9            10 
      6  0.128827D+00
      7  0.371620D-01  0.366471D-01
      8 -0.915341D-01 -0.170817D+00  0.974965D+00
      9 -0.424656D-01 -0.224410D-01  0.905166D-01  0.209522D-01
     10  0.758546D-01 -0.807838D-02  0.396213D-01 -0.205232D-01  0.139439D+00
     11 -0.446979D-01 -0.221549D-01 -0.169650D-01 -0.245262D-01 -0.792313D-01
     12 -0.663729D-01 -0.335739D-01  0.144602D-01  0.182392D-01 -0.323570D+00
     13 -0.254328D-02  0.399212D-02  0.208578D-03  0.187508D-02 -0.485683D-01
     14  0.208025D-01  0.411812D-03  0.411576D-02 -0.212453D-02 -0.681917D-01
     15  0.687495D-02  0.470983D-02 -0.201431D-02 -0.182622D-02  0.882553D-01
     16 -0.127149D-01  0.243398D-02 -0.352579D-02  0.459725D-02 -0.124672D+00
     17 -0.246201D-01 -0.266215D-02  0.212253D-02  0.272449D-02  0.651122D-01
     18 -0.793913D-02  0.210594D-02  0.195615D-02  0.176707D-02  0.139982D+00
     19  0.157496D-02 -0.221328D-03 -0.692341D-04 -0.367164D-03 -0.506325D-02
     20 -0.348351D-03  0.152157D-04 -0.301556D-03  0.238065D-03 -0.131819D-02
     21  0.256377D-03  0.211682D-03 -0.824003D-03 -0.160992D-03 -0.266685D-02
     22  0.518490D-03 -0.370569D-03  0.102250D-02 -0.180373D-03 -0.862582D-02
     23 -0.177306D-03  0.112446D-03  0.860290D-03  0.203673D-03 -0.214434D-03
     24 -0.331952D-03 -0.444140D-03  0.798698D-03  0.159270D-03 -0.593425D-02
     25  0.486330D-03 -0.149754D-04 -0.910624D-03 -0.585686D-05 -0.996791D-02
     26  0.423181D-03  0.458679D-03 -0.356200D-03 -0.531906D-04 -0.287795D-02
     27  0.115704D-02 -0.287277D-03  0.211546D-03 -0.115508D-03 -0.960941D-02
               11            12            13            14            15 
     11  0.760120D+00
     12 -0.168716D-01  0.385858D+00
     13 -0.557088D-01  0.822206D-01  0.628562D-01
     14 -0.171130D+00  0.130590D+00  0.724134D-01  0.187656D+00
     15  0.140499D+00 -0.172199D+00 -0.829951D-01 -0.139234D+00  0.186794D+00
     16  0.768287D-01  0.150725D+00 -0.189102D-02  0.391462D-02  0.618836D-02
     17 -0.876444D-01 -0.834515D-01 -0.126572D-01  0.919790D-02  0.137980D-01
     18 -0.774685D-01 -0.181023D+00  0.140811D-01 -0.889527D-02 -0.111898D-01
     19  0.113563D-02 -0.112998D-01 -0.133769D-02 -0.269319D-03 -0.697018D-03
     20 -0.195683D-03 -0.307292D-02 -0.373625D-03 -0.888109D-04 -0.549455D-03
[...]
 Vibration     1          0.597              1.972              4.336
 Vibration     2          0.615              1.912              2.793
 Vibration     3          0.802              1.378              0.820
 Vibration     4          0.803              1.375              0.816
 Vibration     5          0.856              1.249              0.657
 Vibration     6          0.868              1.222              0.627
 Vibration     7          0.975              0.999              0.424
                       Q            Log10(Q)             Ln(Q)
 Total Bot       0.669454D-17        -17.174280        -39.545240
 Total V=0       0.250776D+14         13.399286         30.852996
 Vib (Bot)       0.348909D-29        -29.457288        -67.827913
 Vib (Bot)    1  0.323447D+01          0.509803          1.173866
 Vib (Bot)    2  0.144376D+01          0.159495          0.367250
 Vib (Bot)    3  0.390376D+00         -0.408516         -0.940644
 Vib (Bot)    4  0.388651D+00         -0.410440         -0.945072
 Vib (Bot)    5  0.328223D+00         -0.483831         -1.114061
 Vib (Bot)    6  0.317017D+00         -0.498918         -1.148800
 Vib (Bot)    7  0.238813D+00         -0.621943         -1.432076
 Vib (V=0)       0.130700D+02          1.116277          2.570322
 Vib (V=0)    1  0.377289D+01          0.576674          1.327841
 Vib (V=0)    2  0.202789D+01          0.307044          0.706995
 Vib (V=0)    3  0.113435D+01          0.054745          0.126056
 Vib (V=0)    4  0.113329D+01          0.054339          0.125121
 Vib (V=0)    5  0.109811D+01          0.040644          0.093587
 Vib (V=0)    6  0.109203D+01          0.038235          0.088039
 Vib (V=0)    7  0.105410D+01          0.022884          0.052691
 Electronic      0.200000D+01          0.301030          0.693147
 Translational   0.169300D+08          7.228656         16.644596
 Rotational      0.566660D+05          4.753322         10.944929
 
                                                    Gaussian input prepared by AS
 E
                                                             IR Spectrum
 
    333  3  3                                    2                        111            11                                          
    222  1  0                                    1                        444            10       8   7      6  5544           1     
    654  7  9                                    4                        875            09       7   8      1  1044           4  6  
    077  8  9                                    1                        483            74       8   4      5  3142           1  4  
 
    XXX  X  X                                    X                        XXX            XX       X   X      X  XXXX           X  X  
                                                 X                                                X                                  
                                                 X                                                                                   
                                                 X                                                                                   
                                                 X                                                                                   
                                                 X                                                                                   
                                                 X                                                                                   
                                                 X                                                                                   
                                                 X                                                                                   
                                                 X                                                                                   
                                                 X                                                                                   
                                                 X                                                                                   
                                                 X                                                                                   
                                                 X                                                                                   
                                                 X                                                                                   
                                                 X                                                                                   
                                                 X                                                                                   
                                                 X                                                                                   
                                                 X                                                                                   
                                                 X                                                                                   
 
 ***** Axes restored to original set *****
 -------------------------------------------------------------------
 Center     Atomic                   Forces (Hartrees/Bohr)
 Number     Number              X              Y              Z
 -------------------------------------------------------------------
      1        6           0.000003470    0.000000097    0.000002608
      2        6          -0.000000359    0.000000056   -0.000000761
      3        8          -0.000001532    0.000002695   -0.000000567
      4        6          -0.000000294    0.000000380    0.000000366
      5        1          -0.000000088   -0.000000106    0.000000859
      6        1           0.000000628   -0.000000291   -0.000000385
      7        1           0.000002403    0.000005007   -0.000006991
      8        1           0.000001973   -0.000009864   -0.000000850
      9        1          -0.000006201    0.000002026    0.000005721
 -------------------------------------------------------------------
 Cartesian Forces:  Max     0.000009864 RMS     0.000003267
 Force constants in Cartesian coordinates: 
                1             2             3             4             5 
      1  0.245044D+00
      2 -0.888082D-01  0.567392D+00
      3 -0.250026D+00 -0.643838D-01  0.414960D+00
      4 -0.161965D-01 -0.107446D-01 -0.146937D-01  0.994564D-01
      5 -0.164127D-01 -0.411615D-02 -0.122619D-01  0.278557D-01  0.141005D+01
      6 -0.157413D-01 -0.846934D-02 -0.930592D-02 -0.412348D-01  0.248247D+00
      7  0.475731D-02  0.133832D-02  0.417060D-02 -0.411352D-01  0.779955D-02
      8 -0.149967D-01 -0.396611D-02 -0.105613D-01 -0.103714D-01 -0.903682D+00
      9  0.114846D-02  0.366856D-03 -0.268964D-03  0.132295D-01 -0.150147D+00
     10  0.446084D-01  0.160679D-01  0.418834D-01 -0.348995D-01 -0.820211D-02
     11  0.386510D-01 -0.321249D-02  0.277721D-01 -0.154140D-01 -0.449550D+00
     12  0.460576D-01  0.126680D-01  0.196136D-01  0.503867D-01 -0.674711D-01
     13 -0.702328D-02  0.138535D-02 -0.109592D-01 -0.687565D-02 -0.100119D-01
     14  0.548217D-03  0.119017D-02 -0.439795D-03 -0.121010D-01 -0.323423D-01
     15 -0.451746D-02  0.105722D-02 -0.695356D-02 -0.881904D-02 -0.130839D-01
     16 -0.124908D-01 -0.227992D-03 -0.226522D-02  0.588863D-03 -0.781673D-02
     17 -0.264994D-03  0.936877D-03  0.920108D-03  0.206478D-01 -0.232518D-01
     18 -0.886662D-02  0.352728D-05 -0.123473D-02  0.153893D-02 -0.104156D-01
     19 -0.365791D-01 -0.193278D-01  0.550772D-01  0.333798D-03  0.247359D-02
     20 -0.265325D-01 -0.145044D+00  0.134340D+00  0.402090D-03  0.144422D-02
     21  0.674004D-01  0.142482D+00 -0.231615D+00 -0.612744D-03  0.130511D-02
     22 -0.284713D-01  0.230288D-01  0.211252D-01 -0.109169D-02  0.231463D-02
     23  0.373008D-01 -0.334190D+00 -0.272668D-01 -0.165923D-03  0.234003D-03
     24  0.237831D-01 -0.368124D-01 -0.445988D-01 -0.504624D-03  0.166325D-02
     25 -0.193649D+00  0.772883D-01  0.155688D+00 -0.180567D-03  0.199987D-02
     26  0.705151D-01 -0.789902D-01 -0.481187D-01 -0.108826D-03  0.120926D-02
     27  0.140762D+00 -0.469116D-01 -0.140597D+00  0.709764D-03  0.216468D-02
                6             7             8             9            10 
      6  0.187121D+00
      7  0.165908D-01  0.225390D-01
      8 -0.162305D+00  0.671941D-02  0.917588D+00
      9 -0.826983D-01 -0.355910D-02  0.168734D+00  0.585470D-01
     10  0.517205D-01  0.900656D-02  0.246267D-01 -0.156686D-01  0.173498D+00
     11 -0.722958D-01 -0.147737D-01 -0.147674D-01 -0.198739D-01 -0.297867D-01
     12 -0.932387D-01 -0.229571D-01  0.648779D-02  0.250744D-01 -0.295355D+00
     13 -0.860089D-03  0.372228D-02  0.667653D-04  0.128382D-02 -0.454685D-01
     14  0.214482D-01  0.132639D-02  0.375804D-02 -0.206815D-02 -0.639605D-01
     15  0.714755D-02  0.373424D-02 -0.240777D-02 -0.252455D-02  0.879622D-01
     16 -0.112987D-01  0.100629D-02 -0.377592D-02  0.398099D-02 -0.133711D+00
     17 -0.273010D-01 -0.241684D-02  0.186830D-02  0.315004D-02  0.652957D-01
     18 -0.940809D-02  0.201509D-02  0.173758D-02  0.208119D-02  0.140437D+00
     19  0.961496D-03  0.635069D-04 -0.636336D-03 -0.258072D-03 -0.360187D-02
     20  0.207516D-03 -0.845581D-04 -0.345024D-03 -0.437747D-04 -0.140344D-02
     21  0.243441D-04  0.229500D-03 -0.101158D-02 -0.170693D-03 -0.130386D-02
     22 -0.455309D-04 -0.172558D-04 -0.474124D-03 -0.190494D-03 -0.362897D-02
     23  0.421645D-05  0.625910D-04  0.481402D-05  0.173071D-04  0.837500D-04
     24 -0.412714D-03 -0.909664D-04 -0.341964D-03  0.117797D-04 -0.236282D-02
     25 -0.923150D-04  0.574776D-04 -0.115842D-02  0.335126D-04 -0.580285D-02
     26  0.464197D-03  0.288811D-04 -0.458212D-03 -0.135094D-03 -0.272128D-02
     27  0.770404D-03 -0.133015D-03 -0.332036D-03 -0.518931D-04 -0.731343D-02
               11            12            13            14            15 
     11  0.717323D+00
     12  0.528252D-03  0.409199D+00
     13 -0.491325D-01  0.805878D-01  0.583253D-01
     14 -0.163535D+00  0.130321D+00  0.698646D-01  0.181707D+00
     15  0.141172D+00 -0.182483D+00 -0.834133D-01 -0.139715D+00  0.194706D+00
     16  0.784376D-01  0.152986D+00 -0.205458D-02  0.443008D-02  0.548848D-02
     17 -0.857792D-01 -0.793192D-01 -0.121403D-01  0.963736D-02  0.136817D-01
     18 -0.714558D-01 -0.171995D+00  0.129551D-01 -0.902093D-02 -0.103029D-01
     19  0.199998D-03 -0.773516D-02 -0.932249D-03 -0.259351D-03 -0.451339D-03
     20 -0.263098D-03 -0.326358D-02 -0.330825D-03 -0.138899D-03 -0.468430D-03
     21 -0.163877D-03 -0.318620D-02 -0.160359D-03 -0.284312D-03  0.196337D-03
     22 -0.720257D-02 -0.371516D-02  0.552836D-03 -0.174678D-03  0.144691D-03
     23  0.571706D-03  0.174756D-03 -0.154409D-03 -0.132066D-03 -0.446874D-03
     24 -0.469647D-02 -0.252545D-02  0.306479D-03 -0.271962D-03 -0.177869D-03
     25 -0.979139D-03 -0.256231D-03 -0.246153D-03  0.326197D-03 -0.128528D-03
     26 -0.787632D-03 -0.125465D-03  0.453127D-03 -0.143713D-03  0.210842D-03
     27 -0.986346D-03 -0.458325D-03  0.259784D-03  0.310030D-04  0.392463D-03
               16            17            18            19            20 
     16  0.146251D+00
     17 -0.707528D-01  0.972272D-01
     18 -0.147969D+00  0.889456D-01  0.191259D+00
     19  0.235563D-03  0.230434D-03  0.741752D-05  0.406206D-01
     20  0.533090D-03 -0.186077D-03  0.328359D-03  0.301085D-01  0.150251D+00
     21 -0.300188D-03  0.219091D-03 -0.479550D-04 -0.643320D-01 -0.147490D+00
     22  0.229915D-03 -0.374201D-03  0.406613D-03  0.133252D-02 -0.544913D-02
     23 -0.485144D-03 -0.252937D-03 -0.154569D-04  0.193538D-02 -0.127249D-01
     24  0.228590D-03 -0.131321D-03  0.267356D-03 -0.230301D-02  0.262758D-01
     25 -0.556340D-04 -0.224844D-03 -0.524957D-03 -0.147280D-02  0.275670D-02
     26 -0.342225D-03 -0.199741D-03 -0.107313D-03 -0.147244D-01  0.700728D-02
     27 -0.851295D-03 -0.165079D-03 -0.618617D-03  0.190335D-01 -0.988619D-02
               21            22            23            24            25 
     21  0.239681D+00
     22 -0.892801D-03  0.303304D-01
     23 -0.600306D-02 -0.360980D-01  0.352084D+00
     24  0.601035D-02 -0.189665D-01  0.323339D-01  0.419764D-01
     25 -0.280203D-04  0.763611D-03 -0.247897D-02 -0.902503D-04  0.200585D+00
     26  0.109467D-01  0.244294D-01 -0.559450D-02 -0.180189D-01 -0.775297D-01
     27 -0.108916D-01  0.213392D-02  0.120193D-02 -0.551015D-03 -0.154601D+00
               26            27 
     26  0.779575D-01
     27  0.548837D-01  0.152005D+00
 Leave Link  716 at Sun Jan 10 13:50:12 2021, MaxMem=    33554432 cpu:         0.1
 (Enter /apps/applications/gaussian/G09.D01/2/default/g09/l9999.exe)
 1\1\GINC-DC1S0B1A\Freq\UB3LYP\3-21G\C3H5O1(2)\CHMRSH\10-Jan-2021\0\\#P
  b3lyp/3-21G scf=qc opt(calcall, ts, noeigentest, cartesian,maxcycle=1
 00)\\Gaussian input prepared by ASE\\0,2\C,1.0192711907,0.5270467436,0
 .7794618998\C,-0.9357943897,-1.1992858638,-0.8479672792\O,-0.937175523
 2,-2.3703856873,-1.0655207075\C,-0.7920341125,0.0830681702,-0.51457061
 68\H,-0.4454393606,0.7674539798,-1.2803799047\H,-1.4606831852,0.486750
 1445,0.2370450075\H,0.8116817416,-0.088731937,1.6483234746\H,0.9154725
 224,1.600916614,0.9099072821\H,1.8247011167,0.1931678358,0.1337008441\
 \Version=ES64L-G09RevD.01\State=2-A\HF=-191.3723982\S2=0.767093\S2-1=0
 .\S2A=0.750076\RMSD=0.000e+00\RMSF=3.267e-06\ZeroPoint=0.066469\Therma
 l=0.0721062\Dipole=-0.1855935,0.626355,-0.0083093\DipoleDeriv=-0.13813
 61,-0.0963787,-0.1432167,0.0009164,0.0311472,-0.0027291,-0.1252417,-0.
 0677989,-0.0470674,0.0023059,-0.1510289,-0.152208,0.4694015,1.6252901,
 0.5799419,-0.0374301,0.1648265,0.1934653,-0.1051631,0.0792973,0.072659
 5,-0.5403325,-1.3451784,-0.5748732,-0.0419632,-0.1602901,-0.2495562,-0
 .0930321,0.1890495,0.0376366,0.0411996,-0.4678568,-0.0410375,0.0102902
 ,0.0578787,-0.0794246,0.1669438,-0.0071791,0.0319079,-0.01032,0.121946
 8,0.0249825,0.0321542,0.0049335,0.0754573,0.1106343,-0.0149459,0.05598
 07,0.00213,0.1275368,-0.0102358,0.0583132,0.0004966,0.1261724,0.044801
 5,-0.0169464,0.013881,-0.0173893,-0.0046717,0.0665943,0.0241063,0.0628
 386,-0.0643863,0.0609526,-0.0071355,0.0099527,0.0233359,-0.1160591,-0.
 0142072,0.0156119,-0.0345917,0.048129,-0.0493068,0.0252676,0.0734063,0
 .0310584,0.0278451,-0.0284361,0.0641593,-0.0282932,-0.0027895\Polar=31
 .9454117,9.8778978,46.8352648,7.1743472,10.8419776,30.7590516\PG=C01 [
 X(C3H5O1)]\NImag=1\\0.24504376,-0.08880825,0.56739188,-0.25002610,-0.0
 6438376,0.41496049,-0.01619649,-0.01074456,-0.01469371,0.09945639,-0.0
 1641270,-0.00411615,-0.01226187,0.02785575,1.41005474,-0.01574129,-0.0
 0846934,-0.00930592,-0.04123479,0.24824661,0.18712145,0.00475731,0.001
 33832,0.00417060,-0.04113520,0.00779955,0.01659079,0.02253903,-0.01499
 666,-0.00396611,-0.01056127,-0.01037144,-0.90368235,-0.16230454,0.0067
 1941,0.91758793,0.00114846,0.00036686,-0.00026896,0.01322950,-0.150147
 12,-0.08269830,-0.00355910,0.16873379,0.05854701,0.04460845,0.01606788
 ,0.04188336,-0.03489946,-0.00820211,0.05172046,0.00900656,0.02462672,-
 0.01566861,0.17349766,0.03865097,-0.00321249,0.02777209,-0.01541395,-0
 .44954964,-0.07229582,-0.01477375,-0.01476739,-0.01987386,-0.02978673,
 0.71732304,0.04605760,0.01266799,0.01961359,0.05038672,-0.06747110,-0.
 09323873,-0.02295715,0.00648779,0.02507442,-0.29535462,0.00052825,0.40
 919883,-0.00702328,0.00138535,-0.01095923,-0.00687565,-0.01001186,-0.0
 0086009,0.00372228,0.00006677,0.00128382,-0.04546848,-0.04913245,0.080
 58777,0.05832527,0.00054822,0.00119017,-0.00043979,-0.01210098,-0.0323
 4229,0.02144817,0.00132639,0.00375804,-0.00206815,-0.06396050,-0.16353
 529,0.13032051,0.06986462,0.18170667,-0.00451746,0.00105722,-0.0069535
 6,-0.00881904,-0.01308392,0.00714755,0.00373424,-0.00240777,-0.0025245
 5,0.08796223,0.14117179,-0.18248310,-0.08341327,-0.13971454,0.19470560
 ,-0.01249080,-0.00022799,-0.00226522,0.00058886,-0.00781673,-0.0112987
 4,0.00100629,-0.00377592,0.00398099,-0.13371103,0.07843763,0.15298623,
 -0.00205458,0.00443008,0.00548848,0.14625142,-0.00026499,0.00093688,0.
 00092011,0.02064785,-0.02325178,-0.02730102,-0.00241684,0.00186830,0.0
 0315004,0.06529571,-0.08577922,-0.07931915,-0.01214032,0.00963736,0.01
 368168,-0.07075279,0.09722722,-0.00886662,0.00000353,-0.00123473,0.001
 53893,-0.01041564,-0.00940809,0.00201509,0.00173758,0.00208119,0.14043
 729,-0.07145576,-0.17199503,0.01295509,-0.00902093,-0.01030287,-0.1479
 6885,0.08894564,0.19125875,-0.03657911,-0.01932783,0.05507715,0.000333
 80,0.00247359,0.00096150,0.00006351,-0.00063634,-0.00025807,-0.0036018
 7,0.00020000,-0.00773516,-0.00093225,-0.00025935,-0.00045134,0.0002355
 6,0.00023043,0.00000742,0.04062064,-0.02653247,-0.14504399,0.13433995,
 0.00040209,0.00144422,0.00020752,-0.00008456,-0.00034502,-0.00004377,-
 0.00140344,-0.00026310,-0.00326358,-0.00033083,-0.00013890,-0.00046843
 ,0.00053309,-0.00018608,0.00032836,0.03010855,0.15025051,0.06740043,0.
 14248154,-0.23161527,-0.00061274,0.00130511,0.00002434,0.00022950,-0.0
 0101158,-0.00017069,-0.00130386,-0.00016388,-0.00318620,-0.00016036,-0
 .00028431,0.00019634,-0.00030019,0.00021909,-0.00004796,-0.06433196,-0
 .14748964,0.23968072,-0.02847133,0.02302876,0.02112524,-0.00109169,0.0
 0231463,-0.00004553,-0.00001726,-0.00047412,-0.00019049,-0.00362897,-0
 .00720257,-0.00371516,0.00055284,-0.00017468,0.00014469,0.00022992,-0.
 00037420,0.00040661,0.00133252,-0.00544913,-0.00089280,0.03033037,0.03
 730078,-0.33419000,-0.02726676,-0.00016592,0.00023400,0.00000422,0.000
 06259,0.00000481,0.00001731,0.00008375,0.00057171,0.00017476,-0.000154
 41,-0.00013207,-0.00044687,-0.00048514,-0.00025294,-0.00001546,0.00193
 538,-0.01272491,-0.00600306,-0.03609805,0.35208389,0.02378308,-0.03681
 240,-0.04459881,-0.00050462,0.00166325,-0.00041271,-0.00009097,-0.0003
 4196,0.00001178,-0.00236282,-0.00469647,-0.00252545,0.00030648,-0.0002
 7196,-0.00017787,0.00022859,-0.00013132,0.00026736,-0.00230301,0.02627
 579,0.00601035,-0.01896647,0.03233394,0.04197638,-0.19364851,0.0772883
 3,0.15568789,-0.00018057,0.00199987,-0.00009231,0.00005748,-0.00115842
 ,0.00003351,-0.00580285,-0.00097914,-0.00025623,-0.00024615,0.00032620
 ,-0.00012853,-0.00005563,-0.00022484,-0.00052496,-0.00147280,0.0027567
 0,-0.00002802,0.00076361,-0.00247897,-0.00009025,0.20058543,0.07051511
 ,-0.07899020,-0.04811870,-0.00010883,0.00120926,0.00046420,0.00002888,
 -0.00045821,-0.00013509,-0.00272128,-0.00078763,-0.00012546,0.00045313
 ,-0.00014371,0.00021084,-0.00034223,-0.00019974,-0.00010731,-0.0147244
 3,0.00700728,0.01094673,0.02442937,-0.00559450,-0.01801885,-0.07752972
 ,0.07795747,0.14076190,-0.04691163,-0.14059682,0.00070976,0.00216468,0
 .00077040,-0.00013301,-0.00033204,-0.00005189,-0.00731343,-0.00098635,
 -0.00045832,0.00025978,0.00003100,0.00039246,-0.00085130,-0.00016508,-
 0.00061862,0.01903348,-0.00988619,-0.01089163,0.00213392,0.00120193,-0
 .00055101,-0.15460110,0.05488366,0.15200543\\-0.00000347,-0.00000010,-
 0.00000261,0.00000036,-0.00000006,0.00000076,0.00000153,-0.00000270,0.
 00000057,0.00000029,-0.00000038,-0.00000037,0.00000009,0.00000011,-0.0
 0000086,-0.00000063,0.00000029,0.00000039,-0.00000240,-0.00000501,0.00
 000699,-0.00000197,0.00000986,0.00000085,0.00000620,-0.00000203,-0.000
 00572\\\@


 WE TEND TO MEET ANY NEW SITUATION BY REORGANIZING. IT CAN BE A
 WONDERFUL METHOD FOR CREATING THE ILLUSION OF PROGRESS WHILE PRODUCING
 CONFUSION, INEFFICIENCY, AND DEMORALIZATION.
     -- PETRONIUS ARBITER, 210 B.C.
 Job cpu time:       0 days  0 hours  8 minutes 17.6 seconds.
 File lengths (MBytes):  RWF=      9 Int=      0 D2E=      0 Chk=      1 Scr=      1
 Normal termination of Gaussian 09 at Sun Jan 10 13:50:12 2021.
