9
Properties=species:S:1:pos:R:3:momenta:R:3:forces:R:3 pbc="F F F"
C        0.93899055       0.44213489       0.71072441       2.30929641       0.73512108       1.59603036       0.15629582       0.04480749       0.06341382
C       -0.78575771      -1.15272729      -0.73973577      -0.37206529       0.26454323      -0.14231471      -0.27722372       0.07278812      -0.05711553
O       -0.71718590      -2.30314909      -0.90691535       0.39623938       1.44796147       2.12052303       0.05706658       0.00160814      -0.04997926
C       -0.78275476       0.15472633      -0.49553514      -0.16638389       0.09280503       0.55569339       0.01616509      -0.03943791      -0.00055881
H       -0.42676659       0.86907563      -1.23103333      -0.28012615      -0.81999286       0.17383601       0.02910609      -0.06455535       0.02801077
H       -1.42598910       0.59268515       0.26105049      -0.18401921       0.26506963       0.33905940       0.01239812      -0.04440430       0.00410574
H        0.67676935      -0.18619471       1.52682769      -0.18099513       0.08621518      -0.44765025      -0.03748243       0.05760082      -0.04226281
H        0.84500498       1.49274794       0.84242135       0.38531773      -0.14167343      -0.58057669       0.03263460      -0.02689640      -0.05465779
H        1.67768918       0.09070113       0.03219566       0.07642137      -0.01974499      -0.23259360       0.01103984      -0.00151061       0.10904386
