9
Properties=species:S:1:pos:R:3 energy=-5228.033828839474 pbc="F F F"
C        0.14312450       1.17527885       0.32371836
C       -0.22402007      -0.85882705       0.52496507
O       -0.43369326      -1.04859612       1.66226296
C       -0.05514467      -1.07947907      -0.78391990
H        0.90988381      -1.26764449      -1.22452287
H       -0.85273577      -0.97688362      -1.50095545
H       -0.80512870       1.47558082       0.70957729
H        0.34054838       1.39903315      -0.70011680
H        0.97716578       1.18153752       0.98899135
