9
Properties=species:S:1:pos:R:3:momenta:R:3:forces:R:3 pbc="F F F"
C       -3.00611953      -2.29065419      -3.07550303      -0.82525085       0.04678503      -1.42082784      -0.00289244       0.03145347      -0.02572704
C       -3.92653275      -1.19795016      -2.93689655       0.33631079      -1.63645196      -0.74907624       0.76582828      -0.87858591       0.28849974
H       -2.09523582      -1.97550963      -3.61680570      -0.13879474      -0.35541839      -0.08940637       0.01226363      -0.01745472       0.00773269
H       -3.44045224      -3.14090160      -3.62878846      -0.06878917      -0.44021503      -0.15584497      -0.01036620       0.01620154       0.04551369
H       -2.67805947      -2.65854035      -2.08207169       0.22135878       0.20355271       0.22992459      -0.02528274      -0.00555410      -0.02653157
C       -4.67372262      -0.24873971      -2.90876700      -0.07898514      -0.93300250       1.30724533      -0.68754444       0.75421434       0.54148034
H       -5.31455970       0.56180847      -2.85987201      -0.06872898      -0.11648879       0.14010102       0.01977911       0.01019260      -0.01921048
O       -4.21587597      -0.89590288      -0.85027044      -1.09546821      -2.02065712      -0.75620846      -0.06775881       0.11022979      -0.84253738
H       -5.09906083      -1.25001663      -0.66183267       0.49492863       0.70551181       0.08495182      -0.00402639      -0.02069701       0.03078001
