9
Properties=species:S:1:pos:R:3:momenta:R:3:forces:R:3 pbc="F F F"
C       -9.07320985       2.78888247      11.25769168       0.43626175       2.38924814       0.75667439      -0.02180540       0.00569102       0.01310859
C      -10.37411532       3.05689107      10.72154973      -0.10330394       1.59329800       1.77514203       0.01420197      -0.00871307      -0.04101882
H       -8.79219593       3.53392178      12.02336292      -0.17865514       0.20905955       0.12012247       0.00849165      -0.00147604      -0.00720861
H       -8.30025169       2.81650360      10.46746615      -0.02615250       0.37509523       0.17917170      -0.02706310       0.00944573       0.00910718
H       -9.01741368       1.79336664      11.73124564      -0.05150940       0.45145381       0.37793372      -0.03754007       0.00109000      -0.01358572
C      -11.46170917       3.29866553      10.25179569       0.72384073       0.52686030       0.38646965       0.12933170      -0.01593848       0.01003909
H      -12.48755574       4.78365584      11.69140815       0.07001995       0.16257639       0.46357982      -0.02441930       0.02042117       0.00845053
O      -12.58524870       3.64648742       9.66224200      -0.89408514       2.35290700      -0.69235101      -0.01822368       0.01100321       0.00435729
H      -13.35105187       3.14982767      10.08493826       0.01236946       0.09054313      -0.11174071      -0.02297378      -0.02152353       0.01675048
