22
Properties=species:S:1:pos:R:3 energy=-2169.1849259216374 pbc="F F F"
O        0.75324700       1.95506800       2.53504000
C        0.12499500       2.29091000       1.55596600
C        0.59341800       2.05162800       0.13972700
C        1.75302000       1.05636400       0.05192400
C        1.32197100      -0.39054800       0.32580100
C        0.33988800      -0.97983000      -0.66920900
H        0.30454300      -2.08252200      -0.61315400
C        0.48359000      -0.47135900      -2.09176100
O       -0.23214000       0.39878900      -2.53053600
C        1.55670800      -1.13475400      -2.90093600
H       -0.84293200       2.81165300       1.64455400
H       -0.25817500       1.70326300      -0.49131900
H        0.89258600       3.02322500      -0.30698700
H        2.23964100       1.13855200      -0.93823000
H        2.52639900       1.33869800       0.80126700
H        2.22121600      -1.03509300       0.39181800
H        0.84927200      -0.43946900       1.34020000
H        1.26157000      -2.14990200      -3.20277700
H        1.75718000      -0.57584400      -3.82884300
H        2.50445300      -1.22055300      -2.35365600
O       -1.42178600      -0.71953900       0.81850300
O       -1.10604200      -0.53248100      -0.30026400
22
Properties=species:S:1:pos:R:3 energy=-2169.183505575556 pbc="F F F"
O        0.75052711       1.96959509       2.54041170
C        0.12092744       2.28352887       1.55212421
C        0.60147224       2.05503961       0.13901932
C        1.75850255       1.05985094       0.05255482
C        1.32608880      -0.38650866       0.32584065
C        0.34018347      -0.97369830      -0.66701286
H        0.30280286      -2.07653460      -0.61012652
C        0.48520924      -0.46744577      -2.09096998
O       -0.22454400       0.40809421      -2.52906467
C        1.55123695      -1.13993250      -2.90114011
H       -0.87392793       2.76215964       1.63503797
H       -0.24885734       1.71108524      -0.49662616
H        0.90090043       3.02804526      -0.29944474
H        2.24414731       1.14165025      -0.93781831
H        2.53281284       1.34138157       0.80083643
H        2.22453023      -1.03254756       0.38881617
H        0.85582678      -0.43655915       1.34104907
H        1.24716565      -2.15297525      -3.20092803
H        1.75364173      -0.58378984      -3.83021264
H        2.49891282      -1.23229071      -2.35517108
O       -1.42250886      -0.72026264       0.81700277
O       -1.10242833      -0.52162969      -0.29705000
22
Properties=species:S:1:pos:R:3 energy=-2169.1799551048884 pbc="F F F"
O        0.74714554       1.98522983       2.54562410
C        0.11608214       2.27575747       1.54886172
C        0.60900086       2.05852470       0.13864122
C        1.76383248       1.06343395       0.05326017
C        1.33020425      -0.38247109       0.32587169
C        0.34061098      -0.96759754      -0.66489353
H        0.30106483      -2.07053655      -0.60710336
C        0.48683874      -0.46350215      -2.09017988
O       -0.21688914       0.41737252      -2.52759810
C        1.54573592      -1.14512885      -2.90134552
H       -0.90284376       2.71196932       1.62488178
H       -0.23948166       1.71894887      -0.50206157
H        0.90920917       3.03284152      -0.29186691
H        2.24868189       1.14473619      -0.93742017
H        2.53921103       1.34406067       0.80038105
H        2.22784011      -1.03000993       0.38580733
H        0.86239575      -0.43364521       1.34189812
H        1.23272683      -2.15601814      -3.19906124
H        1.75008227      -0.59175918      -3.83157108
H        2.49333131      -1.24405533      -2.35668605
O       -1.42332650      -0.72113216       0.81545738
O       -1.09883104      -0.51076292      -0.29376916
22
Properties=species:S:1:pos:R:3 energy=-2169.175132113943 pbc="F F F"
O        0.74300028       2.00190601       2.55064173
C        0.11054852       2.26761417       1.54610066
C        0.61603119       2.06206685       0.13857777
C        1.76901488       1.06710167       0.05403319
C        1.33431518      -0.37843917       0.32589322
C        0.34116180      -0.96152923      -0.66284919
H        0.29932871      -2.06452974      -0.60408521
C        0.48847996      -0.45953644      -2.08939034
O       -0.20917429       0.42661430      -2.52613880
C        1.54020619      -1.15033680      -2.90155027
H       -0.92967310       2.66115089       1.61418927
H       -0.23006197       1.72684761      -0.50759940
H        0.91749949       3.03760292      -0.28425386
H        2.25323842       1.14780959      -0.93703544
H        2.54559008       1.34673261       0.79990027
H        2.23114281      -1.02748153       0.38279311
H        0.86897421      -0.43072961       1.34274542
H        1.21826482      -2.15902206      -3.19717544
H        1.74650219      -0.59974754      -3.83291540
H        2.48770558      -1.25583703      -2.35820044
O       -1.42422348      -0.72210794       0.81388040
O       -1.09524946      -0.49989351      -0.29043328
22
Properties=species:S:1:pos:R:3 energy=-2169.1696567273048 pbc="F F F"
O        0.73798932       2.01955738       2.55542913
C        0.10441604       2.25911732       1.54376316
C        0.62259057       2.06564967       0.13881403
C        1.77405479       1.07084274       0.05486702
C        1.33841939      -0.37441681       0.32590429
C        0.34182719      -0.95549489      -0.66087803
H        0.29759430      -2.05851607      -0.60107276
C        0.49013435      -0.45555693      -2.08860098
O       -0.20139832       0.43580992      -2.52468930
C        1.53464903      -1.15555007      -2.90175243
H       -0.95440954       2.60977316       1.60306427
H       -0.22061227       1.73477518      -0.51321377
H        0.92575866       3.04231864      -0.27660589
H        2.25781061       1.15087020      -0.93666398
H        2.55194654       1.34939468       0.79939349
H        2.23443547      -1.02496381       0.37977511
H        0.87555741      -0.42781480       1.34358925
H        1.20379093      -2.16197842      -3.19526943
H        1.74290205      -0.60775045      -3.83424266
H        2.48203277      -1.26762599      -2.35971375
O       -1.42518437      -0.72315031       0.81228540
O       -1.09168293      -0.48903432      -0.28705416
22
Properties=species:S:1:pos:R:3 energy=-2169.1639573908383 pbc="F F F"
O        0.73201066       2.03811772       2.55995085
C        0.09777414       2.25028529       1.54177132
C        0.62870633       2.06925673       0.13933504
C        1.77895729       1.07464577       0.05575480
C        1.34251470      -0.37040791       0.32590398
C        0.34259840      -0.94949603      -0.65897823
H        0.29586139      -2.05249742      -0.59806669
C        0.49180336      -0.45157193      -2.08781145
O       -0.19356009       0.44494974      -2.52325215
C        1.52906572      -1.16076240      -2.90195005
H       -0.97704670       2.55790499       1.59161060
H       -0.21114654       1.74272530      -0.51887885
H        0.93397398       3.04697781      -0.26892334
H        2.26239214       1.15391780      -0.93630567
H        2.55827693       1.35204417       0.79886012
H        2.23771526      -1.02245818       0.37675494
H        0.88214066      -0.42490321       1.34442789
H        1.18931647      -2.16487861      -3.19334201
H        1.73928245      -0.61576343      -3.83554994
H        2.47630999      -1.27941239      -2.36122551
O       -1.42619375      -0.72421963       0.81068595
O       -1.08813078      -0.47819818      -0.28364361
22
Properties=species:S:1:pos:R:3 energy=-2169.1583122966927 pbc="F F F"
O        0.72496230       2.05752078       2.56417143
C        0.09071225       2.24113644       1.54004729
C        0.63440583       2.07287162       0.14012588
C        1.78372744       1.07849939       0.05668967
C        1.34659894      -0.36641635       0.32589136
C        0.34346669      -0.94353419      -0.65714798
H        0.29412979      -2.04647568      -0.59506769
C        0.49348845      -0.44758973      -2.08702138
O       -0.18565848       0.45402413      -2.52182986
C        1.52345753      -1.16596750      -2.90214119
H       -0.99757818       2.50561519       1.57993209
H       -0.20167880       1.75069170      -0.52456878
H        0.94213270       3.05156961      -0.26120654
H        2.26697671       1.15695216      -0.93596035
H        2.56457779       1.35467838       0.79829956
H        2.24097934      -1.01996609       0.37373423
H        0.88871922      -0.42199726       1.34525960
H        1.17485273      -2.16771404      -3.19139199
H        1.73564393      -0.62378201      -3.83683429
H        2.47053437      -1.29118639      -2.36273522
O       -1.42723618      -0.72527626       0.80909562
O       -1.08459236      -0.46739792      -0.28021345
22
Properties=species:S:1:pos:R:3 energy=-2169.1528852805272 pbc="F F F"
O        0.71674222       2.07770035       2.56805539
C        0.08331983       2.23168914       1.53851319
C        0.63971639       2.07647793       0.14117159
C        1.78837031       1.08239225       0.05766476
C        1.35066992      -0.36244603       0.32586551
C        0.34442332      -0.93761086      -0.65538545
H        0.29239929      -2.04045275      -0.59207645
C        0.49519109      -0.44361863      -2.08623041
O       -0.17769234       0.46302346      -2.52042496
C        1.51782573      -1.17115911      -2.90232392
H       -1.01599759       2.45297262       1.56813258
H       -0.19222303       1.75866810      -0.53025771
H        0.95022211       3.05608318      -0.25345580
H        2.27155799       1.15997304      -0.93562791
H        2.57084564       1.35729460       0.79771121
H        2.24422486      -1.01748897       0.37071459
H        0.89528837      -0.41909941       1.34608267
H        1.16041102      -2.17047610      -3.18941815
H        1.73198709      -0.63180171      -3.83809280
H        2.46470304      -1.30293817      -2.36424242
O       -1.42829623      -0.72628056       0.80752797
O       -1.08106701      -0.45664639      -0.27677548
22
Properties=species:S:1:pos:R:3 energy=-2169.147755444369 pbc="F F F"
O        0.70724841       2.09859019       2.57156729
C        0.07568630       2.22196174       1.53709113
C        0.64466536       2.08005925       0.14245724
C        1.79289096       1.08631296       0.05867321
C        1.35472545      -0.35850085       0.32582550
C        0.34545955      -0.93172757      -0.65368884
H        0.29066970      -2.03443051      -0.58909365
C        0.49691272      -0.43966693      -2.08543817
O       -0.16966055       0.47193810      -2.51903999
C        1.51217161      -1.17633096      -2.90249628
H       -1.03229853       2.40004610       1.55631589
H       -0.18279324       1.76664823      -0.53591979
H        0.95822948       3.06050768      -0.24567144
H        2.27612969       1.16298021      -0.93530819
H        2.57707701       1.35989013       0.79709449
H        2.24744898      -1.01502825       0.36769762
H        0.90184339      -0.41621207       1.34689536
H        1.14600263      -2.17315620      -3.18741932
H        1.72831250      -0.63981804      -3.83932253
H        2.45881310      -1.31465792      -2.36574661
O       -1.42935848      -0.72719287       0.80599659
O       -1.07755405      -0.44595642      -0.27334150
22
Properties=species:S:1:pos:R:3 energy=-2169.142940089649 pbc="F F F"
O        0.69637887       2.12012407       2.57467166
C        0.06790112       2.21197260       1.53570326
C        0.64928006       2.08359915       0.14396789
C        1.79729446       1.09025016       0.05970816
C        1.35876337      -0.35458471       0.32577039
C        0.34656664      -0.92588585      -0.65205632
H        0.28894081      -2.02841085      -0.58611999
C        0.49865480      -0.43574293      -2.08464431
O       -0.16156199       0.48075841      -2.51767748
C        1.50649644      -1.18147677      -2.90265633
H       -1.04647461       2.34690446       1.54458584
H       -0.17340342       1.77462580      -0.54152917
H        0.96614210       3.06483228      -0.23785381
H        2.28068549       1.16597344      -0.93500106
H        2.58326844       1.36246226       0.79644880
H        2.25064885      -1.01258536       0.36468495
H        0.90837957      -0.41333769       1.34769596
H        1.13163888      -2.17574573      -3.18539429
H        1.72462071      -0.64782654      -3.84052055
H        2.45286170      -1.32633579      -2.36724732
O       -1.43040749      -0.72797355       0.80451503
O       -1.07405282      -0.43534086      -0.26992332
22
Properties=species:S:1:pos:R:3 energy=-2169.1384108200527 pbc="F F F"
O        0.68403160       2.14223575       2.57733305
C        0.06005373       2.20174010       1.53427168
C        0.65358785       2.08708123       0.14568860
C        1.80158588       1.09419247       0.06076276
C        1.36278147      -0.35070149       0.32569926
C        0.34773585      -0.92008720      -0.65048608
H        0.28721243      -2.02239567      -0.58315615
C        0.50041878      -0.43185492      -2.08384845
O       -0.15339550       0.48947477      -2.51633994
C        1.50080148      -1.18659029      -2.90280214
H       -1.05851943       2.29361654       1.53304627
H       -0.16406756       1.78259455      -0.54705999
H        0.97394723       3.06904612      -0.23000321
H        2.28521909       1.16895250      -0.93470639
H        2.58941645       1.36500829       0.79577354
H        2.25382164      -1.01016175       0.36167818
H        0.91489218      -0.41047870       1.34848274
H        1.11733107      -2.17823609      -3.18334186
H        1.72091232      -0.65582273      -3.84168393
H        2.44684594      -1.33796198      -2.36874405
O       -1.43142784      -0.72858295       0.80309687
O       -1.07056267      -0.42481253      -0.26653275
22
Properties=species:S:1:pos:R:3 energy=-2169.134102908141 pbc="F F F"
O        0.67010458       2.16485900       2.57951599
C        0.05223356       2.19128259       1.53271853
C        0.65761605       2.09048908       0.14760441
C        1.80577027       1.09812853       0.06183014
C        1.36677760      -0.34685511       0.32561118
C        0.34895843      -0.91433314      -0.64897631
H        0.28548435      -2.01638686      -0.58020281
C        0.50220613      -0.42801121      -2.08305023
O       -0.14515997       0.49807754      -2.51502992
C        1.49508803      -1.19166523      -2.90293176
H       -1.06842661       2.24025118       1.52180101
H       -0.15479968       1.79054818      -0.55248641
H        0.98163215       3.07313836      -0.22211998
H        2.28972418       1.17191714      -0.93442405
H        2.59551758       1.36752550       0.79506812
H        2.25696450      -1.00775884       0.35867894
H        0.92137650      -0.40763754       1.34925398
H        1.10309049      -2.18061869      -3.18126083
H        1.71718790      -0.66380213      -3.84280975
H        2.44076296      -1.34952665      -2.37023633
O       -1.43240408      -0.72898144       0.80175567
O       -1.06708292      -0.41438428      -0.26318160
22
Properties=species:S:1:pos:R:3 energy=-2169.12991823112 pbc="F F F"
O        0.65449581       2.18792759       2.58118501
C        0.04453006       2.18061843       1.53096594
C        0.66139202       2.09380628       0.14970040
C        1.80985271       1.10204697       0.06290343
C        1.37074955      -0.34304944       0.32550523
C        0.35022565      -0.90862519      -0.64752518
H        0.28375638      -2.01038631      -0.57726066
C        0.50401830      -0.42422009      -2.08224929
O       -0.13685426       0.50655709      -2.51374994
C        1.48935735      -1.19669533      -2.90304325
H       -1.07618974       2.18687721       1.51095388
H       -0.14561376       1.79848044      -0.55778257
H        0.98918414       3.07709817      -0.21420443
H        2.29419443       1.17486715      -0.93415388
H        2.60156835       1.37001120       0.79433194
H        2.26007459      -1.00537806       0.35568883
H        0.92782781      -0.40481663       1.35000795
H        1.08892844      -2.18288492      -3.17915000
H        1.71344800      -0.67176027      -3.84389506
H        2.43460988      -1.36101998      -2.37172368
O       -1.43332081      -0.72912936       0.80050501
O       -1.06361292      -0.40406895      -0.25988168
22
Properties=species:S:1:pos:R:3 energy=-2169.125722277418 pbc="F F F"
O        0.63710328       2.21137529       2.58230467
C        0.03703267       2.16976598       1.52893602
C        0.66494307       2.09701642       0.15196163
C        1.81383826       1.10593641       0.06397579
C        1.37469515      -0.33928839       0.32538048
C        0.35152877      -0.90296487      -0.64613089
H        0.28202831      -2.00439590      -0.57433040
C        0.50585674      -0.42048986      -2.08144527
O       -0.12847724       0.51490378      -2.51250254
C        1.48361072      -1.20167431      -2.90313467
H       -1.08180244       2.13356347       1.50060872
H       -0.13652380       1.80638504      -0.56292262
H        0.99659047       3.08091469      -0.20625690
H        2.29862356       1.17780228      -0.93389577
H        2.60756530       1.37246268       0.79356441
H        2.26314907      -1.00302085       0.35270948
H        0.93424139      -0.40201843       1.35074292
H        1.07485624      -2.18502618      -3.17700819
H        1.70969322      -0.67969266      -3.84493694
H        2.42838382      -1.37243215      -2.37320560
O       -1.43416258      -0.72898706       0.79935846
O       -1.06015200      -0.39387938      -0.25664478
22
Properties=species:S:1:pos:R:3 energy=-2169.1213369284087 pbc="F F F"
O        0.61785508       2.23511675       2.58285375
C        0.02980257       2.15873629       1.52656441
C        0.66829533       2.10010902       0.15436911
C        1.81773355       1.10978375       0.06503772
C        1.37861013      -0.33557813       0.32523686
C        0.35285748      -0.89735703      -0.64479078
H        0.28030032      -1.99842212      -0.57141295
C        0.50772018      -0.41682932      -2.08063725
O       -0.12003356       0.52310627      -2.51129103
C        1.47785307      -1.20659383      -2.90320347
H       -1.08526719       2.08037099       1.49086179
H       -0.12754968       1.81424868      -0.56788074
H        1.00384281       3.08458448      -0.19829614
H        2.30300636       1.18071853      -0.93365330
H        2.61350429       1.37487488       0.79276562
H        2.26618385      -1.00069120       0.34974400
H        0.94060862      -0.39924670       1.35145773
H        1.06089162      -2.18703560      -3.17483626
H        1.70592630      -0.68758962      -3.84593272
H        2.42208830      -1.38374774      -2.37467958
O       -1.43489949      -0.72846606       0.79834163
O       -1.05670796      -0.38383630      -0.25349037
22
Properties=species:S:1:pos:R:3 energy=-2169.1165809132035 pbc="F F F"
O        0.59684767       2.25895961       2.58289072
C        0.02274276       2.14749938       1.52386237
C        0.67146804       2.10310689       0.15688137
C        1.82155386       1.11356617       0.06606509
C        1.38247857      -0.33193754       0.32507915
C        0.35419280      -0.89182517      -0.64349767
H        0.27857474      -1.99249711      -0.56851068
C        0.50959198      -0.41325006      -2.07982130
O       -0.11156033       0.53114357      -2.51012326
C        1.47210985      -1.21143388      -2.90324376
H       -1.08663622       2.02731722       1.48176707
H       -0.11874414       1.82201875      -0.57263126
H        1.01095733       3.08814554      -0.19044403
H        2.30734393       1.18359074      -0.93345104
H        2.61937744       1.37722954       0.79193950
H        2.26916793      -0.99840731       0.34680400
H        0.94689907      -0.39651277       1.35215437
H        1.04708842      -2.18891591      -3.17264669
H        1.70216223      -0.69541233      -3.84688117
H        2.41576264      -1.39492016      -2.37613166
O       -1.43542066      -0.72720449       0.79754762
O       -1.05333594      -0.37400468      -0.25048072
22
Properties=species:S:1:pos:R:3 energy=-2169.1113612501895 pbc="F F F"
O        0.57423607       2.28267435       2.58250177
C        0.01570126       2.13601105       1.52086743
C        0.67447803       2.10604437       0.15944907
C        1.82531754       1.11725748       0.06702867
C        1.38628047      -0.32838994       0.32491382
C        0.35551269      -0.88639924      -0.64224275
H        0.27685465      -1.98666197      -0.56562644
C        0.51145022      -0.40976464      -2.07899242
O       -0.10310588       0.53899138      -2.50900861
C        1.46641361      -1.21617041      -2.90324848
H       -1.08597901       1.97440444       1.47336385
H       -0.11017134       1.82962900      -0.57714858
H        1.01795874       3.09165024      -0.18285834
H        2.31163954       1.18638638      -0.93332078
H        2.62517558       1.37950383       0.79109132
H        2.27208790      -0.99619238       0.34390403
H        0.95307473      -0.39383061       1.35283592
H        1.03351301      -2.19067322      -3.17045599
H        1.69842023      -0.70311182      -3.84778157
H        2.40945858      -1.40589193      -2.37754392
O       -1.43558706      -0.72474549       0.79709295
O       -1.05010755      -0.36446489      -0.24769295
22
Properties=species:S:1:pos:R:3 energy=-2169.105650900839 pbc="F F F"
O        0.55017533       2.30603138       2.58177313
C        0.00852602       2.12422707       1.51761715
C        0.67734217       2.10895583       0.16202288
C        1.82904292       1.12083147       0.06789922
C        1.38999587      -0.32495866       0.32474734
C        0.35679515      -0.88110923      -0.64101723
H        0.27514311      -1.98095776      -0.56276306
C        0.51327292      -0.40638563      -2.07814560
O       -0.09471858       0.54662536      -2.50795647
C        1.46079693      -1.22077935      -2.90321057
H       -1.08336511       1.92163491       1.46569138
H       -0.10189549       1.83701315      -0.58140707
H        1.02487175       3.09515100      -0.17569682
H        2.31589645       1.18907294      -0.93329436
H        2.63088952       1.38167491       0.79022633
H        2.27493032      -0.99406958       0.34105864
H        0.95909757      -0.39121415       1.35350545
H        1.02023175      -2.19231361      -3.16828067
H        1.69471954      -0.71063911      -3.84863318
H        2.40322791      -1.41660560      -2.37889842
O       -1.43525963      -0.72063208       0.79709417
O       -1.04709440      -0.35529727      -0.24520423
22
Properties=species:S:1:pos:R:3 energy=-2169.0993836207717 pbc="F F F"
O        0.52482052       2.32880112       2.58079102
C        0.00106501       2.11210321       1.51414910
C        0.68007729       2.11187563       0.16455347
C        1.83274832       1.12426195       0.06864751
C        1.39360476      -0.32166699       0.32458617
C        0.35801813      -0.87598513      -0.63981229
H        0.27344320      -1.97542559      -0.55992340
C        0.51503815      -0.40312558      -2.07727585
O       -0.08644681       0.55402120      -2.50697624
C        1.45529237      -1.22523667      -2.90312297
H       -1.07886402       1.86901090       1.45878893
H       -0.09398075       1.84410492      -0.58538114
H        1.03172106       3.09870020      -0.16911728
H        2.32011793       1.19161791      -0.93340362
H        2.63651008       1.38371994       0.78934980
H        2.27768179      -0.99206210       0.33828238
H        0.96492957      -0.38867736       1.35416605
H        1.00731104      -2.19384318      -3.16613725
H        1.69107938      -0.71794524      -3.84943530
H        2.39712239      -1.42700367      -2.38017724
O       -1.43429930      -0.71440728       0.79766785
O       -1.04436811      -0.34658218      -0.24309172
22
Properties=species:S:1:pos:R:3 energy=-2169.092299773611 pbc="F F F"
O        0.49832672       2.35075400       2.57964164
C       -0.00683381       2.09959524       1.51050084
C        0.68270024       2.11483815       0.16699151
C        1.83645207       1.12752272       0.06924430
C        1.39708716      -0.31853827       0.32443677
C        0.35915962      -0.87105691      -0.63861915
H        0.27175799      -1.97010654      -0.55711030
C        0.51672394      -0.39999707      -2.07637817
O       -0.07833893       0.56115456      -2.50607730
C        1.44993252      -1.22951828      -2.90297860
H       -1.07254526       1.81653467       1.45269577
H       -0.08649131       1.85083803      -0.58904516
H        1.03853140       3.10235024      -0.16327747
H        2.32430726       1.19398875      -0.93368036
H        2.64202809       1.38561608       0.78846700
H        2.28032889      -0.99019313       0.33558980
H        0.97053272      -0.38623418       1.35482078
H        0.99481725      -2.19526803      -3.16404224
H        1.68751898      -0.72498122      -3.85018718
H        2.39119379      -1.43702869      -2.38136245
O       -1.43256702      -0.70561412       0.79893053
O       -1.04200030      -0.33840000      -0.24143256
22
Properties=species:S:1:pos:R:3 energy=-2169.0837740688294 pbc="F F F"
O        0.47085014       2.37166152       2.57841014
C       -0.01531890       2.08666177       1.50671045
C        0.68522810       2.11787739       0.16928791
C        1.84017226       1.13058778       0.06966068
C        1.40042320      -0.31559556       0.32430558
C        0.36019748      -0.86635418      -0.63742896
H        0.27009055      -1.96504136      -0.55432666
C        0.51830849      -0.39701257      -2.07544763
O       -0.07044304       0.56800122      -2.50526896
C        1.44474975      -1.23360031      -2.90277051
H       -1.06448224       1.76420730       1.44744940
H       -0.07949081       1.85714674      -0.59237365
H        1.04532704       3.10615288      -0.15833359
H        2.32846750       1.19615328      -0.93415598
H        2.64743432       1.38734071       0.78758318
H        2.28285829      -0.98848559       0.33299538
H        0.97586929      -0.38389844       1.35547271
H        0.98281639      -2.19659419      -3.16201205
H        1.68405750      -0.73169846      -3.85088810
H        2.38549351      -1.44662355      -2.38243631
O       -1.42992543      -0.69380031       0.80099879
O       -1.04006139      -0.33083003      -0.24030382
22
Properties=species:S:1:pos:R:3 energy=-2169.0730249264093 pbc="F F F"
O        0.44261690       2.39135994       2.57711741
C       -0.02432457       2.07343164       1.50284661
C        0.68769203       2.12100611       0.17140906
C        1.84391251       1.13344338       0.06988755
C        1.40359990      -0.31284747       0.32419665
C        0.36110274      -0.86188446      -0.63623024
H        0.26844358      -1.96025125      -0.55157765
C        0.51977840      -0.39418007      -2.07448389
O       -0.06279181       0.57454282      -2.50455454
C        1.43976561      -1.23746868      -2.90249735
H       -1.05498075       1.71195837       1.44298244
H       -0.07300920       1.86299708      -0.59534816
H        1.05210625       3.11012022      -0.15434486
H        2.33258950       1.19809906      -0.93483548
H        2.65271654       1.38888463       0.78670274
H        2.28526165      -0.98694836       0.33050811
H        0.98092007      -0.38167586       1.35612242
H        0.97135221      -2.19782443      -3.16005690
H        1.68070904      -0.73807009      -3.85153720
H        2.38005056      -1.45575316      -2.38339284
O       -1.42633995      -0.67879464       0.80398993
O       -1.03854923      -0.32388877      -0.23977581
22
Properties=species:S:1:pos:R:3 energy=-2169.0600221623195 pbc="F F F"
O        0.41396144       2.40978594       2.57568470
C       -0.03345311       2.06029756       1.49902549
C        0.69014498       2.12420414       0.17334527
C        1.84765399       1.13609474       0.06994649
C        1.40661493      -0.31028016       0.32411038
C        0.36183587      -0.85762104      -0.63500744
H        0.26681924      -1.95572707      -0.54887201
C        0.52113334      -0.39150053      -2.07349370
O       -0.05539397       0.58077011      -2.50392820
C        1.43498485      -1.24112452      -2.90216649
H       -1.04470682       1.65960665       1.43906491
H       -0.06702434       1.86840436      -0.59796119
H        1.05882698       3.11420299      -0.15122035
H        2.33664518       1.19984431      -0.93568292
H        2.65785784       1.39025943       0.78582878
H        2.28753843      -0.98556843       0.32812857
H        0.98569450      -0.37955964       1.35676678
H        0.96043399      -2.19895640      -3.15817737
H        1.67747990      -0.74410295      -3.85213339
H        2.37485928      -1.46441655      -2.38424424
O       -1.42193527      -0.66086156       0.80802239
O       -1.03734923      -0.31749537      -0.23990847
22
Properties=species:S:1:pos:R:3 energy=-2169.0456432637275 pbc="F F F"
O        0.38522748       2.42688481       2.57402470
C       -0.04227829       2.04767492       1.49536732
C        0.69264179       2.12744848       0.17508894
C        1.85137595       1.13854869       0.06986174
C        1.40946691      -0.30787783       0.32404684
C        0.36235641      -0.85353426      -0.63374465
H        0.26521965      -1.95145704      -0.54621880
C        0.52237410      -0.38897432      -2.07248442
O       -0.04825619       0.58667460      -2.50338326
C        1.43041078      -1.24457028      -2.90178606
H       -1.03435747       1.60696139       1.43545282
H       -0.06150955       1.87338813      -0.60020616
H        1.06544370       3.11834662      -0.14885616
H        2.34060482       1.20140985      -0.93665887
H        2.66284094       1.39147847       0.78496428
H        2.28968875      -0.98433093       0.32585663
H        0.99020447      -0.37754188       1.35740231