 Entering Gaussian System, Link 0=g09
 Initial command:
 /cm/shared/apps/Gaussian09/g09/l1.exe "/local/Gau-59165.inp" -scrdir="/local/"
 Entering Link 1 = /cm/shared/apps/Gaussian09/g09/l1.exe PID=     59166.
  
 Copyright (c) 1988,1990,1992,1993,1995,1998,2003,2009,2013,
            Gaussian, Inc.  All Rights Reserved.
  
 This is part of the Gaussian(R) 09 program.  It is based on
 the Gaussian(R) 03 system (copyright 2003, Gaussian, Inc.),
 the Gaussian(R) 98 system (copyright 1998, Gaussian, Inc.),
 the Gaussian(R) 94 system (copyright 1995, Gaussian, Inc.),
 the Gaussian 92(TM) system (copyright 1992, Gaussian, Inc.),
 the Gaussian 90(TM) system (copyright 1990, Gaussian, Inc.),
 the Gaussian 88(TM) system (copyright 1988, Gaussian, Inc.),
 the Gaussian 86(TM) system (copyright 1986, Carnegie Mellon
 University), and the Gaussian 82(TM) system (copyright 1983,
 Carnegie Mellon University). Gaussian is a federally registered
 trademark of Gaussian, Inc.
  
 This software contains proprietary and confidential information,
 including trade secrets, belonging to Gaussian, Inc.
  
 This software is provided under written license and may be
 used, copied, transmitted, or stored only in accord with that
 written license.
  
 The following legend is applicable only to US Government
 contracts under FAR:
  
                    RESTRICTED RIGHTS LEGEND
  
 Use, reproduction and disclosure by the US Government is
 subject to restrictions as set forth in subparagraphs (a)
 and (c) of the Commercial Computer Software - Restricted
 Rights clause in FAR 52.227-19.
  
 Gaussian, Inc.
 340 Quinnipiac St., Bldg. 40, Wallingford CT 06492
  
  
 ---------------------------------------------------------------
 Warning -- This program may not be used in any manner that
 competes with the business of Gaussian, Inc. or will provide
 assistance to any competitor of Gaussian, Inc.  The licensee
 of this program is prohibited from giving any competitor of
 Gaussian, Inc. access to this program.  By using this program,
 the user acknowledges that Gaussian, Inc. is engaged in the
 business of creating and licensing software in the field of
 computational chemistry and represents and warrants to the
 licensee that it is not a competitor of Gaussian, Inc. and that
 it will not use this program in any manner prohibited above.
 ---------------------------------------------------------------
  

 Cite this work as:
 Gaussian 09, Revision D.01,
 M. J. Frisch, G. W. Trucks, H. B. Schlegel, G. E. Scuseria, 
 M. A. Robb, J. R. Cheeseman, G. Scalmani, V. Barone, B. Mennucci, 
 G. A. Petersson, H. Nakatsuji, M. Caricato, X. Li, H. P. Hratchian, 
 A. F. Izmaylov, J. Bloino, G. Zheng, J. L. Sonnenberg, M. Hada, 
 M. Ehara, K. Toyota, R. Fukuda, J. Hasegawa, M. Ishida, T. Nakajima, 
 Y. Honda, O. Kitao, H. Nakai, T. Vreven, J. A. Montgomery, Jr., 
 J. E. Peralta, F. Ogliaro, M. Bearpark, J. J. Heyd, E. Brothers, 
 K. N. Kudin, V. N. Staroverov, T. Keith, R. Kobayashi, J. Normand, 
 K. Raghavachari, A. Rendell, J. C. Burant, S. S. Iyengar, J. Tomasi, 
 M. Cossi, N. Rega, J. M. Millam, M. Klene, J. E. Knox, J. B. Cross, 
 V. Bakken, C. Adamo, J. Jaramillo, R. Gomperts, R. E. Stratmann, 
 O. Yazyev, A. J. Austin, R. Cammi, C. Pomelli, J. W. Ochterski, 
 R. L. Martin, K. Morokuma, V. G. Zakrzewski, G. A. Voth, 
 P. Salvador, J. J. Dannenberg, S. Dapprich, A. D. Daniels, 
 O. Farkas, J. B. Foresman, J. V. Ortiz, J. Cioslowski, 
 and D. J. Fox, Gaussian, Inc., Wallingford CT, 2013.
 
 ******************************************
 Gaussian 09:  ES64L-G09RevD.01 24-Apr-2013
                23-Feb-2021 
 ******************************************
 %nprocshared=1
 Will use up to    1 processors via shared memory.
 ----------------------------------------------------------------------
 #P pm6 scf=qc opt(calcall, ts, noeigentest, cartesian,maxcycle=100) No
 Symm
 ----------------------------------------------------------------------
 1/5=1,6=100,10=4,11=1,14=-1,18=10,26=1,38=1/1,3;
 2/12=2,15=1,17=6,18=5,29=2,40=1/2;
 3/5=2,16=1,25=1,41=3900000,71=2,140=1/1,2,3;
 4/35=1/1;
 5/5=2,8=3,35=1,38=5/8;
 8/6=4,10=90,11=11/1;
 11/6=1,8=1,9=11,15=111,16=1,31=1/1,2,10;
 10/6=1,31=1/2;
 6/7=2,8=2,9=2,10=2,18=1,28=1/1;
 7/7=1,10=1,25=1,30=1/1,2,3,16;
 1/5=1,6=100,10=4,11=1,14=-1,18=10,26=1/3(3);
 2/15=1,29=1/2;
 7/7=1,8=1,9=1,25=1,30=1,44=-1/16;
 99/12=1/99;
 2/15=1,29=1/2;
 3/5=2,16=1,25=1,41=3900000,71=2,135=20,140=1/1,2,3;
 4/5=5,16=3,35=1/1;
 5/5=2,8=3,35=1,38=5/8;
 8/6=4,10=90,11=11/1;
 11/6=1,8=1,9=11,15=111,16=1,31=1/1,2,10;
 10/6=1,31=1/2;
 7/7=1,10=1,25=1,30=1/1,2,3,16;
 1/5=1,6=100,10=4,11=1,14=-1,18=10,26=1/3(-8);
 2/15=1,29=1/2;
 6/7=2,8=2,9=2,10=2,18=1,19=2,28=1/1;
 7/7=1,8=1,9=1,25=1,30=1,44=-1/16;
 99/12=1/99;
 Leave Link    1 at Tue Feb 23 12:29:42 2021, MaxMem=           0 cpu:         0.0
 (Enter /cm/shared/apps/Gaussian09/g09/l101.exe)
 ------------------------------
 Gaussian input prepared by ASE
 ------------------------------
 Symbolic Z-matrix:
 Charge =  0 Multiplicity = 1
 O                    -0.54327  -1.33588  -0.80835 
 O                     0.46556   0.29839  -1.62857 
 C                     0.64447   0.9512   -0.42945 
 O                     1.7624    1.24606  -0.11122 
 C                    -0.53125   1.27975   0.44378 
 C                    -0.96331   2.73081   0.25279 
 C                    -2.08429   3.17164   1.19951 
 C                    -3.4589    2.75254   0.74202 
 O                    -3.69832   1.92442  -0.09745 
 C                    -4.62565   3.50235   1.45027 
 O                    -5.10498   3.07904   2.47029 
 C                    -5.07028   4.7464    0.75168 
 H                    -0.21515  -1.87998  -1.56317 
 H                    -1.29035   0.51083   0.01386 
 H                    -0.33415   1.0321    1.49781 
 H                    -0.0851    3.3964    0.40395 
 H                    -1.29132   2.88743  -0.79611 
 H                    -1.91051   2.77028   2.22286 
 H                    -2.04698   4.27581   1.317 
 H                    -4.38854   5.58562   0.94899 
 H                    -5.13303   4.62112  -0.33912 
 H                    -6.06827   5.06738   1.09956 
 
 NAtoms=     22 NQM=       22 NQMF=       0 NMMI=      0 NMMIF=      0
                NMic=       0 NMicF=      0.
                    Isotopes and Nuclear Properties:
 (Nuclear quadrupole moments (NQMom) in fm**2, nuclear magnetic moments (NMagM)
  in nuclear magnetons)

  Atom         1           2           3           4           5           6           7           8           9          10
 IAtWgt=          16          16          12          16          12          12          12          12          16          12
 AtmWgt=  15.9949146  15.9949146  12.0000000  15.9949146  12.0000000  12.0000000  12.0000000  12.0000000  15.9949146  12.0000000
 NucSpn=           0           0           0           0           0           0           0           0           0           0
 AtZEff=   0.0000000   0.0000000   0.0000000   0.0000000   0.0000000   0.0000000   0.0000000   0.0000000   0.0000000   0.0000000
 NQMom=    0.0000000   0.0000000   0.0000000   0.0000000   0.0000000   0.0000000   0.0000000   0.0000000   0.0000000   0.0000000
 NMagM=    0.0000000   0.0000000   0.0000000   0.0000000   0.0000000   0.0000000   0.0000000   0.0000000   0.0000000   0.0000000
 AtZNuc=   8.0000000   8.0000000   6.0000000   8.0000000   6.0000000   6.0000000   6.0000000   6.0000000   8.0000000   6.0000000

  Atom        11          12          13          14          15          16          17          18          19          20
 IAtWgt=          16          12           1           1           1           1           1           1           1           1
 AtmWgt=  15.9949146  12.0000000   1.0078250   1.0078250   1.0078250   1.0078250   1.0078250   1.0078250   1.0078250   1.0078250
 NucSpn=           0           0           1           1           1           1           1           1           1           1
 AtZEff=   0.0000000   0.0000000   0.0000000   0.0000000   0.0000000   0.0000000   0.0000000   0.0000000   0.0000000   0.0000000
 NQMom=    0.0000000   0.0000000   0.0000000   0.0000000   0.0000000   0.0000000   0.0000000   0.0000000   0.0000000   0.0000000
 NMagM=    0.0000000   0.0000000   2.7928460   2.7928460   2.7928460   2.7928460   2.7928460   2.7928460   2.7928460   2.7928460
 AtZNuc=   8.0000000   6.0000000   1.0000000   1.0000000   1.0000000   1.0000000   1.0000000   1.0000000   1.0000000   1.0000000

  Atom        21          22
 IAtWgt=           1           1
 AtmWgt=   1.0078250   1.0078250
 NucSpn=           1           1
 AtZEff=   0.0000000   0.0000000
 NQMom=    0.0000000   0.0000000
 NMagM=    2.7928460   2.7928460
 AtZNuc=   1.0000000   1.0000000
 Leave Link  101 at Tue Feb 23 12:29:42 2021, MaxMem=    33554432 cpu:         0.1
 (Enter /cm/shared/apps/Gaussian09/g09/l103.exe)

 GradGradGradGradGradGradGradGradGradGradGradGradGradGradGradGradGradGrad
 Berny optimization.
 Initialization pass.
 No Z-matrix variables, so optimization will use Cartesian coordinates.
 Trust Radius=3.00D-01 FncErr=1.00D-07 GrdErr=1.00D-07
 Number of steps in this run=    100 maximum allowed number of steps=    132.
 Search for a saddle point of order  1.
 GradGradGradGradGradGradGradGradGradGradGradGradGradGradGradGradGradGrad

 Leave Link  103 at Tue Feb 23 12:29:42 2021, MaxMem=    33554432 cpu:         0.0
 (Enter /cm/shared/apps/Gaussian09/g09/l202.exe)
 ---------------------------------------------------------------------------------------------------
                            Z-MATRIX (ANGSTROMS AND DEGREES)
   CD    Cent   Atom    N1       Length/X        N2       Alpha/Y        N3        Beta/Z          J
 ---------------------------------------------------------------------------------------------------
      1      1  O        0  -0.543266         -1.335880         -0.808349
      2      2  O        0   0.465562          0.298389         -1.628575
      3      3  C        0   0.644475          0.951202         -0.429454
      4      4  O        0   1.762395          1.246063         -0.111217
      5      5  C        0  -0.531254          1.279753          0.443775
      6      6  C        0  -0.963311          2.730808          0.252790
      7      7  C        0  -2.084294          3.171644          1.199513
      8      8  C        0  -3.458898          2.752538          0.742016
      9      9  O        0  -3.698322          1.924423         -0.097448
     10     10  C        0  -4.625649          3.502349          1.450271
     11     11  O        0  -5.104976          3.079045          2.470291
     12     12  C        0  -5.070281          4.746399          0.751678
     13     13  H        0  -0.215150         -1.879980         -1.563168
     14     14  H        0  -1.290349          0.510828          0.013863
     15     15  H        0  -0.334154          1.032097          1.497808
     16     16  H        0  -0.085101          3.396402          0.403951
     17     17  H        0  -1.291317          2.887431         -0.796114
     18     18  H        0  -1.910514          2.770281          2.222865
     19     19  H        0  -2.046982          4.275815          1.316997
     20     20  H        0  -4.388545          5.585621          0.948993
     21     21  H        0  -5.133027          4.621122         -0.339116
     22     22  H        0  -6.068269          5.067379          1.099557
 ---------------------------------------------------------------------------------------------------
                         Z-Matrix orientation:                         
 ---------------------------------------------------------------------
 Center     Atomic      Atomic             Coordinates (Angstroms)
 Number     Number       Type             X           Y           Z
 ---------------------------------------------------------------------
      1          8           0       -0.543266   -1.335880   -0.808349
      2          8           0        0.465562    0.298389   -1.628575
      3          6           0        0.644475    0.951202   -0.429454
      4          8           0        1.762395    1.246063   -0.111217
      5          6           0       -0.531254    1.279753    0.443775
      6          6           0       -0.963311    2.730808    0.252790
      7          6           0       -2.084294    3.171644    1.199513
      8          6           0       -3.458898    2.752538    0.742016
      9          8           0       -3.698322    1.924423   -0.097448
     10          6           0       -4.625649    3.502349    1.450271
     11          8           0       -5.104976    3.079045    2.470291
     12          6           0       -5.070281    4.746399    0.751678
     13          1           0       -0.215150   -1.879980   -1.563168
     14          1           0       -1.290349    0.510828    0.013863
     15          1           0       -0.334154    1.032097    1.497808
     16          1           0       -0.085101    3.396402    0.403951
     17          1           0       -1.291317    2.887431   -0.796114
     18          1           0       -1.910514    2.770281    2.222865
     19          1           0       -2.046982    4.275815    1.316997
     20          1           0       -4.388545    5.585621    0.948993
     21          1           0       -5.133027    4.621122   -0.339116
     22          1           0       -6.068269    5.067379    1.099557
 ---------------------------------------------------------------------
                    Distance matrix (angstroms):
                    1          2          3          4          5
     1  O    0.000000
     2  O    2.088382   0.000000
     3  C    2.604810   1.376977   0.000000
     4  O    3.531076   2.209579   1.199151   0.000000
     5  C    2.899913   2.500271   1.500937   2.360080   0.000000
     6  C    4.223790   3.390851   2.493477   3.125131   1.526010
     7  C    5.169531   4.770266   3.876864   4.496987   2.561703
     8  C    5.255445   5.200378   4.631935   5.500852   3.290766
     9  O    4.592313   4.725068   4.462877   5.502708   3.277017
    10  C    6.721285   6.757594   6.149464   6.952422   4.766239
    11  O    7.144945   7.454102   6.781771   7.562062   5.316310
    12  C    7.740909   7.489723   6.961108   7.725439   5.719720
    13  H    0.986640   2.283186   3.168573   3.973788   3.756549
    14  H    2.155109   2.413702   2.033225   3.142525   1.162883
    15  H    3.312009   3.309402   2.163007   2.651464   1.100530
    16  H    4.906534   3.745941   2.684370   2.881423   2.163524
    17  H    4.289066   3.237708   2.762374   3.533884   2.167867
    18  H    5.283765   5.156508   4.107530   4.611012   2.699850
    19  H    6.186225   5.550603   4.620290   5.072529   3.469342
    20  H    8.110585   7.626338   6.979200   7.601965   5.802967
    21  H    7.534718   7.189780   6.845144   7.680483   5.740556
    22  H    8.669919   8.536798   8.021328   8.797029   6.740526
                    6          7          8          9         10
     6  C    0.000000
     7  C    1.532065   0.000000
     8  C    2.543181   1.508142   0.000000
     9  O    2.872840   2.417179   1.203245   0.000000
    10  C    3.929625   2.575021   1.557289   2.396918   0.000000
    11  O    4.710835   3.278410   2.408965   3.147238   1.203903
    12  C    4.602032   3.405368   2.563617   3.250667   1.494453
    13  H    5.011667   6.053512   6.107045   5.362304   7.583059
    14  H    2.256623   3.019281   3.202823   2.794454   4.704964
    15  H    2.198073   2.780221   3.646253   3.828670   4.951901
    16  H    1.112258   2.163378   3.451283   3.933636   4.660749
    17  H    1.110098   2.166129   2.661286   2.684994   4.067202
    18  H    2.186309   1.112898   2.142597   3.048867   2.916296
    19  H    2.166547   1.111030   2.155107   3.202597   2.695466
    20  H    4.512968   3.346583   2.988886   3.869860   2.155811
    21  H    4.616294   3.709871   2.731879   3.064142   2.170482
    22  H    5.677779   4.413146   3.506443   4.114321   2.157191
                   11         12         13         14         15
    11  O    0.000000
    12  C    2.394766   0.000000
    13  H    8.048051   8.534618   0.000000
    14  H    5.213555   5.724711   3.059255   0.000000
    15  H    5.281709   6.064952   4.226574   1.840685   0.000000
    16  H    5.437795   5.176430   5.632643   3.151400   2.616961
    17  H    5.024948   4.486868   4.947193   2.510837   3.101693
    18  H    3.218873   4.006690   6.231631   3.220158   2.455992
    19  H    3.480470   3.111490   7.038805   4.055339   3.672625
    20  H    3.018368   1.099086   8.914223   6.018871   6.121589
    21  H    3.204927   1.099756   8.243067   5.637844   6.267740
    22  H    2.600061   1.104548   9.466515   6.690994   7.022974
                   16         17         18         19         20
    16  H    0.000000
    17  H    1.775997   0.000000
    18  H    2.651906   3.084049   0.000000
    19  H    2.335808   2.638916   1.762343   0.000000
    20  H    4.858948   4.463008   3.961001   2.708124   0.000000
    21  H    5.247251   4.239489   4.513752   3.519321   1.773058
    22  H    6.250946   5.582563   4.881128   4.104217   1.764289
                   21         22
    21  H    0.000000
    22  H    1.773020   0.000000
 Symmetry turned off by external request.
 Stoichiometry    C7H10O5
 Framework group  C1[X(C7H10O5)]
 Deg. of freedom    60
 Full point group                 C1      NOp   1
 Rotational constants (GHZ):      1.9473543      0.3503413      0.3255148
 Leave Link  202 at Tue Feb 23 12:29:42 2021, MaxMem=    33554432 cpu:         0.0
 (Enter /cm/shared/apps/Gaussian09/g09/l301.exe)
 Standard basis: VSTO-6G (5D, 7F)
 Ernie: Thresh=  0.10000D-02 Tol=  0.10000D-05 Strict=F.
  NNHCO=     0 NNPyr=     0 NCTC=     0               EPep=         0.000000000
    EC=       326.332863972  ECS=         4.459475696   EG=         0.365375183
   EHC=         0.001778590  EAt=       -86.526901464  AtH=         3.211178636
 EPDDG=         0.000000000  ECC=       331.159493441 EAtT=        89.738080100
    58 basis functions,   348 primitive gaussians,    58 cartesian basis functions
    34 alpha electrons       34 beta electrons
       nuclear repulsion energy       420.8975735409 Hartrees.
 IExCor=    0 DFT=F Ex=HF Corr=None ExCW=0 ScaHFX=  1.000000
 ScaDFX=  1.000000  1.000000  1.000000  1.000000 ScalE2=  1.000000  1.000000
 IRadAn=      0 IRanWt=     -1 IRanGd=            0 ICorTp=0 IEmpDi=  4
 Integral buffers will be    131072 words long.
 Regular integral format.
 Two-electron integral symmetry is turned off.
 Leave Link  301 at Tue Feb 23 12:29:42 2021, MaxMem=    33554432 cpu:         0.0
 (Enter /cm/shared/apps/Gaussian09/g09/l302.exe)
 Do NDO integrals.
 NPDir=0 NMtPBC=     1 NCelOv=     1 NCel=       1 NClECP=     1 NCelD=      1
         NCelK=      1 NCelE2=     1 NClLst=     1 CellRange=     0.0.
 One-electron integrals computed using PRISM.
 NBasis=    58 RedAO= F EigKep=  0.00D+00  NBF=    58
 NBsUse=    58 1.00D-04 EigRej=  0.00D+00 NBFU=    58
 Leave Link  302 at Tue Feb 23 12:29:43 2021, MaxMem=    33554432 cpu:         0.1
 (Enter /cm/shared/apps/Gaussian09/g09/l303.exe)
 DipDrv:  MaxL=1.
 Leave Link  303 at Tue Feb 23 12:29:43 2021, MaxMem=    33554432 cpu:         0.0
 (Enter /cm/shared/apps/Gaussian09/g09/l401.exe)
 Simple Huckel Guess.
 JPrj=0 DoOrth=F DoCkMO=F.
 Leave Link  401 at Tue Feb 23 12:29:43 2021, MaxMem=    33554432 cpu:         0.0
 (Enter /cm/shared/apps/Gaussian09/g09/l508.exe)
 Direct SCF.
 Tight linear equation convergence will be used.
 RPM6 wavefunction.
 Quadratic Convergence SCF Method.
 Line search only if initial step raises energy.
 Two-electron integral symmetry not used.
 ReadGW:  IGet=1 IStart=       59293 Next=       59293 LGW=           0.
 Keep J ints in memory in canonical form, NReq=910647.
 FoFCou: FMM=F IPFlag=           0 FMFlag=           0 FMFlg1=           0
         NFxFlg=           0 DoJE=F BraDBF=F KetDBF=F FulRan=T
         wScrn=  0.000000 ICntrl=     600 IOpCl=  2 I1Cent=           0 NGrid=           0
         NMat0=    1 NMatS0=    130 NMatT0=    0 NMatD0=    1 NMtDS0=    0 NMtDT0=    0
 Symmetry not used in FoFCou.
 Iteration   1 EE=  1.13107227983483                                    Grad=5.933D-01 Max rot=    4.6454 deg.
 Gradient too large for Newton-Raphson -- use scaled steepest descent instead.
 Alpha Gap=    -0.287 HL deriv= 4.39D-02
     ILin= 1 X=0.000D+00 Y= 1.131072279835D+00 DE= 0.00D+00 F= -1.22D+00
     ILin= 2 X=3.000D-01 Y= 8.143931800979D-01 DE=-3.17D-01 F= -8.75D-01
     ILin= 3 X=4.000D-01 Y= 7.334277815518D-01 DE=-3.98D-01 F= -7.43D-01
     ILin= 4 X=6.000D-01 Y= 6.131556785444D-01 DE=-5.18D-01 F= -4.55D-01
     ILin= 5 X=8.000D-01 Y= 5.531187812626D-01 DE=-5.78D-01 F= -1.41D-01
     ILin= 6 X=1.200D+00 Y= 6.310206687490D-01 DE=-5.00D-01 F=  5.39D-01
     An  expanding polynomial of degree  6 produced  0.8858
     Minimum is close to point  5 DX=  8.58D-02 DF= -6.09D-03 DXR=  9.69D-02 DFR=  1.05D-02 which will be used.
 Iteration   2 EE= 0.553118781262640     Delta-E=       -0.577953498572 Grad=3.364D-01 Max rot=    2.7146 deg.
 Gradient too large for Newton-Raphson -- use scaled steepest descent instead.
 Alpha Gap=    -0.144 HL deriv= 3.86D-02
     ILin= 1 X=0.000D+00 Y= 5.531187812626D-01 DE= 0.00D+00 F= -3.34D-01
     ILin= 2 X=5.000D-01 Y= 4.268029780376D-01 DE=-1.26D-01 F= -1.70D-01
     ILin= 3 X=8.000D-01 Y= 3.905633988827D-01 DE=-1.63D-01 F= -7.14D-02
     ILin= 4 X=1.200D+00 Y= 3.877877929494D-01 DE=-1.65D-01 F=  5.64D-02
     Accept linear search using points  3 and  4.
     An  expanding polynomial of degree  4 produced  1.0013
 Iteration   3 EE= 0.382767924669452     Delta-E=       -0.170350856593 Grad=1.874D-01 Max rot=    2.0747 deg.
 Gradient too large for Newton-Raphson -- use scaled steepest descent instead.
 Alpha Gap=    -0.100 HL deriv= 3.62D-02
     ILin= 1 X=0.000D+00 Y= 3.827679246695D-01 DE= 0.00D+00 F= -1.44D-01
     ILin= 2 X=9.000D-01 Y= 3.119200184776D-01 DE=-7.08D-02 F= -7.67D-03
     Reject lnstep minimum 9.654D-01 FVal= 3.116428808270D-01 Lims=  0.00D+00  9.00D-01
     ILin= 3 X=1.500D+00 Y= 3.383403088557D-01 DE=-4.44D-02 F=  9.65D-02
     An  expanding polynomial of degree  3 produced  0.9310
     Minimum is close to point  2 DX=  3.10D-02 DF= -7.85D-05 DXR=  3.33D-02 DFR=  1.11D-03 which will be used.
 Iteration   4 EE= 0.311920018477565     Delta-E=       -0.070847906192 Grad=1.291D-01 Max rot=    1.9286 deg.
 Gradient too large for Newton-Raphson -- use scaled steepest descent instead.
 Alpha Gap=    -0.041 HL deriv= 3.37D-02
     ILin= 1 X=0.000D+00 Y= 3.119200184776D-01 DE= 0.00D+00 F= -8.48D-02
     ILin= 2 X=1.000D+00 Y= 2.421732547097D-01 DE=-6.97D-02 F= -4.76D-02
     Reject lnstep minimum 1.605D+00 FVal= 2.266405217013D-01 Lims=  0.00D+00  1.00D+00
     ILin= 3 X=1.400D+00 Y= 2.280553986357D-01 DE=-8.39D-02 F= -2.23D-02
     ILin= 4 X=1.900D+00 Y= 2.256101317727D-01 DE=-8.63D-02 F=  1.28D-02
     Accept linear search using points  3 and  4.
     An  expanding polynomial of degree  4 produced  1.6688
 Iteration   5 EE= 0.224550027489102     Delta-E=       -0.087369990988 Grad=1.363D-01 Max rot=    1.3398 deg.
 Gradient too large for Newton-Raphson -- use scaled steepest descent instead.
 Alpha Gap=     0.066 HL deriv= 7.41D-02
     ILin= 1 X=0.000D+00 Y= 2.245500274891D-01 DE= 0.00D+00 F= -1.11D-01
     ILin= 2 X=1.200D+00 Y= 1.339882918468D-01 DE=-9.06D-02 F= -3.15D-02
     Reject lnstep minimum 1.344D+00 FVal= 1.320270725287D-01 Lims=  0.00D+00  1.20D+00
     ILin= 3 X=1.800D+00 Y= 1.291615555534D-01 DE=-9.54D-02 F=  1.43D-02
     Accept linear search using points  2 and  3.
     An  expanding polynomial of degree  3 produced  1.5408
 Iteration   6 EE= 0.127871579752423     Delta-E=       -0.096678447737 Grad=1.341D-01 Max rot=    1.1769 deg.
 Gradient too large for Newton-Raphson -- use scaled steepest descent instead.
 Alpha Gap=     0.112 HL deriv= 1.01D-01
     ILin= 1 X=0.000D+00 Y= 1.278715797524D-01 DE= 0.00D+00 F= -7.99D-02
     ILin= 2 X=1.600D+00 Y= 7.030079562804D-02 DE=-5.76D-02 F=  1.00D-02
     Accept linear search using points  1 and  2.
     An  expanding polynomial of degree  2 produced  1.5387
     Minimum is close to point  2 DX= -6.13D-02 DF= -1.89D-04 DXR=  3.99D-02 DFR=  3.29D-03 which will be used.
 Iteration   7 EE= 0.703007956280430E-01 Delta-E=       -0.057570784124 Grad=1.098D-01 Max rot=    1.2122 deg.
 Gradient too large for Newton-Raphson -- use scaled steepest descent instead.
 Alpha Gap=     0.140 HL deriv= 2.12D-02
     ILin= 1 X=0.000D+00 Y= 7.030079562804D-02 DE= 0.00D+00 F= -5.29D-02
     ILin= 2 X=1.500D+00 Y= 4.171465702711D-02 DE=-2.86D-02 F=  1.35D-02
     Accept linear search using points  1 and  2.
     An  expanding polynomial of degree  2 produced  1.3294
 Iteration   8 EE= 0.400035216827064E-01 Delta-E=       -0.030297273945 Grad=7.584D-02 Max rot=    1.0230 deg.
 Gradient too large for Newton-Raphson -- use scaled steepest descent instead.
 Alpha Gap=     0.149 HL deriv= 9.33D-02
     ILin= 1 X=0.000D+00 Y= 4.000352168271D-02 DE= 0.00D+00 F= -3.04D-02
     ILin= 2 X=1.400D+00 Y= 2.501918436064D-02 DE=-1.50D-02 F=  1.03D-02
     Accept linear search using points  1 and  2.
     An  expanding polynomial of degree  2 produced  1.1884
 Iteration   9 EE= 0.235367123433434E-01 Delta-E=       -0.016466809339 Grad=5.476D-02 Max rot=    0.8941 deg.
 Gradient too large for Newton-Raphson -- use scaled steepest descent instead.
 Alpha Gap=     0.159 HL deriv= 9.81D-02
     ILin= 1 X=0.000D+00 Y= 2.353671234334D-02 DE= 0.00D+00 F= -1.92D-02
     ILin= 2 X=1.300D+00 Y= 1.135998314805D-02 DE=-1.22D-02 F=  1.46D-05
     Accept linear search using points  1 and  2.
     An  expanding polynomial of degree  2 produced  1.2995
     Minimum is close to point  2 DX= -5.17D-04 DF= -2.91D-09 DXR=  3.98D-04 DFR=  2.39D-07 which will be used.
 Iteration  10 EE= 0.113599831480542E-01 Delta-E=       -0.012176729195 Grad=5.493D-02 Max rot=    1.1663 deg.
 Gradient too large for Newton-Raphson -- use scaled steepest descent instead.
 Alpha Gap=     0.166 HL deriv= 2.53D-02
     ILin= 1 X=0.000D+00 Y= 1.135998314805D-02 DE= 0.00D+00 F= -1.84D-02
     ILin= 2 X=1.200D+00 Y=-1.654096716209D-03 DE=-1.30D-02 F= -2.89D-03
     Reject lnstep minimum 1.303D+00 FVal=-1.779884044781D-03 Lims=  0.00D+00  1.20D+00
     ILin= 3 X=1.900D+00 Y=-3.130534905154D-04 DE=-1.17D-02 F=  6.71D-03
     An  expanding polynomial of degree  3 produced  1.4074
 Iteration  11 EE=-0.195853928778433E-02 Delta-E=       -0.013318522436 Grad=5.214D-02 Max rot=    1.3411 deg.
 Gradient too large for Newton-Raphson -- use scaled steepest descent instead.
 Alpha Gap=     0.177 HL deriv= 1.32D-01
     ILin= 1 X=0.000D+00 Y=-1.958539287784D-03 DE= 0.00D+00 F= -2.02D-02
     ILin= 2 X=1.400D+00 Y=-1.752628581750D-02 DE=-1.56D-02 F= -2.65D-03
     Reject lnstep minimum 1.471D+00 FVal=-1.759449831007D-02 Lims=  0.00D+00  1.40D+00
     ILin= 3 X=2.000D+00 Y=-1.733064037865D-02 DE=-1.54D-02 F=  3.04D-03
     An  expanding polynomial of degree  3 produced  1.6715
 Iteration  12 EE=-0.178626507455419E-01 Delta-E=       -0.015904111458 Grad=7.233D-02 Max rot=    1.5203 deg.
 Gradient too large for Newton-Raphson -- use scaled steepest descent instead.
 Alpha Gap=     0.177 HL deriv= 9.23D-03
     ILin= 1 X=0.000D+00 Y=-1.786265074554D-02 DE= 0.00D+00 F= -2.80D-02
     ILin= 2 X=1.500D+00 Y=-3.623800434497D-02 DE=-1.84D-02 F=  4.20D-03
     Accept linear search using points  1 and  2.
     An  expanding polynomial of degree  2 produced  1.4176
     Minimum is close to point  2 DX= -8.24D-02 DF= -1.14D-04 DXR=  5.81D-02 DFR=  6.18D-03 which will be used.
 Iteration  13 EE=-0.362380043449662E-01 Delta-E=       -0.018375353599 Grad=6.230D-02 Max rot=    1.6510 deg.
 Gradient too large for Newton-Raphson -- use scaled steepest descent instead.
 Alpha Gap=     0.206 HL deriv= 1.40D-01
     ILin= 1 X=0.000D+00 Y=-3.623800434497D-02 DE= 0.00D+00 F= -2.53D-02
     ILin= 2 X=1.500D+00 Y=-5.350860198769D-02 DE=-1.73D-02 F=  1.23D-03
     Accept linear search using points  1 and  2.
     An  expanding polynomial of degree  2 produced  1.4712
     Minimum is close to point  2 DX= -2.88D-02 DF= -1.18D-05 DXR=  1.96D-02 DFR=  6.81D-04 which will be used.
 Iteration  14 EE=-0.535086019876871E-01 Delta-E=       -0.017270597643 Grad=6.193D-02 Max rot=    1.4360 deg.
 Gradient too large for Newton-Raphson -- use scaled steepest descent instead.
 Alpha Gap=     0.195 HL deriv= 1.65D-02
     ILin= 1 X=0.000D+00 Y=-5.350860198769D-02 DE= 0.00D+00 F= -1.98D-02
     ILin= 2 X=1.400D+00 Y=-6.739947642677D-02 DE=-1.39D-02 F=  5.90D-04
     Accept linear search using points  1 and  2.
     An  expanding polynomial of degree  2 produced  1.3841
     Minimum is close to point  2 DX= -1.59D-02 DF= -3.34D-06 DXR=  1.15D-02 DFR=  2.41D-04 which will be used.
 Iteration  15 EE=-0.673994764267718E-01 Delta-E=       -0.013890874439 Grad=4.319D-02 Max rot=    1.0773 deg.
 Gradient too large for Newton-Raphson -- use scaled steepest descent instead.
 Alpha Gap=     0.225 HL deriv= 8.35D-02
     ILin= 1 X=0.000D+00 Y=-6.739947642677D-02 DE= 0.00D+00 F= -1.19D-02
     ILin= 2 X=1.400D+00 Y=-7.683145451176D-02 DE=-9.43D-03 F= -1.84D-03
     Reject lnstep minimum 1.479D+00 FVal=-7.688454605165D-02 Lims=  0.00D+00  1.40D+00
     ILin= 3 X=2.300D+00 Y=-7.599817737912D-02 DE=-8.60D-03 F=  3.52D-03
     An  expanding polynomial of degree  3 produced  1.7111
 Iteration  16 EE=-0.770952789936246E-01 Delta-E=       -0.009695802567 Grad=4.422D-02 Max rot=    1.1031 deg.
 Gradient too large for Newton-Raphson -- use scaled steepest descent instead.
 Alpha Gap=     0.210 HL deriv= 2.32D-02
     ILin= 1 X=0.000D+00 Y=-7.709527899362D-02 DE= 0.00D+00 F= -1.04D-02
     ILin= 2 X=1.500D+00 Y=-8.308661561381D-02 DE=-5.99D-03 F=  2.70D-03
     Accept linear search using points  1 and  2.
     An  expanding polynomial of degree  2 produced  1.3460
 Iteration  17 EE=-0.833936964046984E-01 Delta-E=       -0.006298417411 Grad=2.974D-02 Max rot=    0.6189 deg.
 Gradient too large for Newton-Raphson -- use scaled steepest descent instead.
 Alpha Gap=     0.233 HL deriv= 4.64D-02
     ILin= 1 X=0.000D+00 Y=-8.339369640470D-02 DE= 0.00D+00 F= -5.34D-03
     ILin= 2 X=1.500D+00 Y=-8.709523889996D-02 DE=-3.70D-03 F=  3.03D-04
     Accept linear search using points  1 and  2.
     An  expanding polynomial of degree  2 produced  1.4681
     Minimum is close to point  2 DX= -3.19D-02 DF= -3.21D-06 DXR=  2.18D-02 DFR=  8.66D-04 which will be used.
 Iteration  18 EE=-0.870952388999626E-01 Delta-E=       -0.003701542495 Grad=2.512D-02 Max rot=    0.6774 deg.
 Gradient too large for Newton-Raphson -- use scaled steepest descent instead.
 Alpha Gap=     0.222 HL deriv= 2.29D-02
     ILin= 1 X=0.000D+00 Y=-8.709523889996D-02 DE= 0.00D+00 F= -3.70D-03
     ILin= 2 X=1.400D+00 Y=-8.931950895476D-02 DE=-2.22D-03 F=  5.89D-04
     Accept linear search using points  1 and  2.
     An  expanding polynomial of degree  2 produced  1.3037
     Minimum is close to point  2 DX= -9.63D-02 DF= -2.00D-05 DXR=  7.39D-02 DFR=  8.97D-03 which will be used.
 Iteration  19 EE=-0.893195089547589E-01 Delta-E=       -0.002224270055 Grad=1.967D-02 Max rot=    0.3370 deg.
 Gradient too large for Newton-Raphson -- use scaled steepest descent instead.
 Alpha Gap=     0.234 HL deriv= 2.51D-02
     ILin= 1 X=0.000D+00 Y=-8.931950895476D-02 DE= 0.00D+00 F= -2.23D-03
     ILin= 2 X=1.400D+00 Y=-9.065647436648D-02 DE=-1.34D-03 F=  3.00D-04
     Accept linear search using points  1 and  2.
     An  expanding polynomial of degree  2 produced  1.3143
     Minimum is close to point  2 DX= -8.57D-02 DF= -9.07D-06 DXR=  6.52D-02 DFR=  6.78D-03 which will be used.
 Iteration  20 EE=-0.906564743664831E-01 Delta-E=       -0.001336965412 Grad=1.519D-02 Max rot=    0.4018 deg.
 Gradient too large for Newton-Raphson -- use scaled steepest descent instead.
 Alpha Gap=     0.227 HL deriv= 1.66D-02
     ILin= 1 X=0.000D+00 Y=-9.065647436648D-02 DE= 0.00D+00 F= -1.39D-03
     ILin= 2 X=1.300D+00 Y=-9.146991498881D-02 DE=-8.13D-04 F=  1.51D-04
     Accept linear search using points  1 and  2.
     An  expanding polynomial of degree  2 produced  1.2289
     Minimum is close to point  2 DX= -7.11D-02 DF= -4.10D-06 DXR=  5.78D-02 DFR=  5.04D-03 which will be used.
 Iteration  21 EE=-0.914699149888065E-01 Delta-E=       -0.000813440622 Grad=1.131D-02 Max rot=    0.1896 deg.
 Gradient too large for Newton-Raphson -- use scaled steepest descent instead.
 Alpha Gap=     0.233 HL deriv= 1.42D-02
     ILin= 1 X=0.000D+00 Y=-9.146991498881D-02 DE= 0.00D+00 F= -7.25D-04
     ILin= 2 X=1.300D+00 Y=-9.194580799823D-02 DE=-4.76D-04 F= -1.04D-05
     Reject lnstep minimum 1.309D+00 FVal=-9.194584455897D-02 Lims=  0.00D+00  1.30D+00
     ILin= 3 X=2.500D+00 Y=-9.157282305006D-02 DE=-1.03D-04 F=  6.28D-04
     An  expanding polynomial of degree  3 produced  1.3260
     Minimum is close to point  2 DX=  2.60D-02 DF= -1.83D-07 DXR=  1.96D-02 DFR=  3.85D-04 which will be used.
 Iteration  22 EE=-0.919458079982292E-01 Delta-E=       -0.000475893009 Grad=7.896D-03 Max rot=    0.1978 deg.
 QCNR:  CnvC1=4.04D-09 CnvC2=4.04D-08
 LinEq1:  Iter=  0 NonCon=     1 RMS=6.84D-04 Max=1.06D-02 NDo=     1
 AX will form     1 AO Fock derivatives at one time.
 LinEq1:  Iter=  1 NonCon=     1 RMS=3.07D-04 Max=5.76D-03 NDo=     1
 LinEq1:  Iter=  2 NonCon=     1 RMS=3.45D-05 Max=6.79D-04 NDo=     1
 LinEq1:  Iter=  3 NonCon=     1 RMS=6.54D-06 Max=1.01D-04 NDo=     1
 LinEq1:  Iter=  4 NonCon=     1 RMS=1.50D-06 Max=2.54D-05 NDo=     1
 LinEq1:  Iter=  5 NonCon=     1 RMS=3.42D-07 Max=4.23D-06 NDo=     1
 LinEq1:  Iter=  6 NonCon=     1 RMS=5.49D-08 Max=6.52D-07 NDo=     1
 LinEq1:  Iter=  7 NonCon=     1 RMS=1.07D-08 Max=1.50D-07 NDo=     1
 LinEq1:  Iter=  8 NonCon=     0 RMS=2.36D-09 Max=2.76D-08 NDo=     1
 Linear equations converged to 4.040D-09 4.040D-08 after     8 iterations.
 Angle between quadratic step and gradient=  44.09 degrees.
     ILin= 1 X=0.000D+00 Y=-9.194580799823D-02 DE= 0.00D+00 F= -1.55D-03
     ILin= 2 X=1.000D+00 Y=-9.266724824590D-02 DE=-7.21D-04 F=  1.60D-04
     Accept linear search using points  1 and  2.
     An  expanding polynomial of degree  2 produced  0.9144
     Minimum is close to point  2 DX= -8.56D-02 DF= -6.81D-06 DXR=  9.36D-02 DFR=  9.44D-03 which will be used.
 Iteration  23 EE=-0.926672482459026E-01 Delta-E=       -0.000721440248 Grad=1.685D-03 Max rot=    0.0441 deg.
 QCNR:  CnvC1=4.04D-09 CnvC2=4.04D-08
 LinEq1:  Iter=  0 NonCon=     1 RMS=1.23D-04 Max=2.53D-03 NDo=     1
 LinEq1:  Iter=  1 NonCon=     1 RMS=3.65D-05 Max=5.20D-04 NDo=     1
 LinEq1:  Iter=  2 NonCon=     1 RMS=9.55D-06 Max=1.04D-04 NDo=     1
 LinEq1:  Iter=  3 NonCon=     1 RMS=1.70D-06 Max=1.26D-05 NDo=     1
 LinEq1:  Iter=  4 NonCon=     1 RMS=3.99D-07 Max=5.10D-06 NDo=     1
 LinEq1:  Iter=  5 NonCon=     1 RMS=1.01D-07 Max=9.79D-07 NDo=     1
 LinEq1:  Iter=  6 NonCon=     1 RMS=1.90D-08 Max=1.83D-07 NDo=     1
 LinEq1:  Iter=  7 NonCon=     0 RMS=3.39D-09 Max=3.74D-08 NDo=     1
 Linear equations converged to 4.040D-09 4.040D-08 after     7 iterations.
 Angle between quadratic step and gradient=  50.83 degrees.
     ILin= 1 X=0.000D+00 Y=-9.266724824590D-02 DE= 0.00D+00 F= -2.09D-05
     ILin= 2 X=1.000D+00 Y=-9.267775718541D-02 DE=-1.05D-05 F= -1.78D-07
     Reject lnstep minimum 1.009D+00 FVal=-9.267775795530D-02 Lims=  0.00D+00  1.00D+00
     ILin= 3 X=2.000D+00 Y=-9.266772337935D-02 DE=-4.75D-07 F=  2.02D-05
     An  expanding polynomial of degree  3 produced  1.0116
     Minimum is close to point  2 DX=  1.16D-02 DF= -1.37D-09 DXR=  1.14D-02 DFR=  1.31D-04 which will be used.
 Iteration  24 EE=-0.926777571854132E-01 Delta-E=       -0.000010508940 Grad=1.222D-05 Max rot=    0.0002 deg.
 QCNR:  CnvC1=1.22D-10 CnvC2=1.22D-09
 LinEq1:  Iter=  0 NonCon=     1 RMS=9.49D-07 Max=1.52D-05 NDo=     1
 LinEq1:  Iter=  1 NonCon=     1 RMS=4.07D-07 Max=7.86D-06 NDo=     1
 LinEq1:  Iter=  2 NonCon=     1 RMS=5.94D-08 Max=4.52D-07 NDo=     1
 LinEq1:  Iter=  3 NonCon=     1 RMS=1.55D-08 Max=1.70D-07 NDo=     1
 LinEq1:  Iter=  4 NonCon=     1 RMS=3.90D-09 Max=3.72D-08 NDo=     1
 LinEq1:  Iter=  5 NonCon=     1 RMS=9.74D-10 Max=1.33D-08 NDo=     1
 LinEq1:  Iter=  6 NonCon=     1 RMS=1.39D-10 Max=1.04D-09 NDo=     1
 LinEq1:  Iter=  7 NonCon=     0 RMS=2.19D-11 Max=1.87D-10 NDo=     1
 Linear equations converged to 1.222D-10 1.222D-09 after     7 iterations.
 Angle between quadratic step and gradient=  47.08 degrees.
     ILin= 1 X=0.000D+00 Y=-9.267775718541D-02 DE= 0.00D+00 F= -2.61D-09
     ILin= 2 X=1.000D+00 Y=-9.267775848758D-02 DE=-1.30D-09
 Iteration  25 EE=-0.926777584875822E-01 Delta-E=       -0.000000001302 Grad=6.079D-08 Max rot=    0.0000 deg.
 Rotation gradient small -- convergence achieved.
 SCF Done:  E(RPM6) = -0.926777584876E-01 a.u. after   25 cycles
            Convg  =    0.6079D-07                    71 Fock formations.
              S**2 =  0.0000                  -V/T =  0.9976
 Leave Link  508 at Tue Feb 23 12:29:43 2021, MaxMem=    33554432 cpu:         0.1
 (Enter /cm/shared/apps/Gaussian09/g09/l801.exe)
 Range of M.O.s used for correlation:     1    58
 NBasis=    58 NAE=    34 NBE=    34 NFC=     0 NFV=     0
 NROrb=     58 NOA=    34 NOB=    34 NVA=    24 NVB=    24
 Leave Link  801 at Tue Feb 23 12:29:43 2021, MaxMem=    33554432 cpu:         0.0
 (Enter /cm/shared/apps/Gaussian09/g09/l1101.exe)
 Using compressed storage, NAtomX=    22.
 Will process     23 centers per pass.
 Leave Link 1101 at Tue Feb 23 12:29:43 2021, MaxMem=    33554432 cpu:         0.0
 (Enter /cm/shared/apps/Gaussian09/g09/l1102.exe)
 Symmetrizing basis deriv contribution to polar:
 IMax=3 JMax=2 DiffMx= 0.00D+00
 Leave Link 1102 at Tue Feb 23 12:29:43 2021, MaxMem=    33554432 cpu:         0.0
 (Enter /cm/shared/apps/Gaussian09/g09/l1110.exe)
 Forming Gx(P) for the SCF density, NAtomX=    22.
 Integral derivatives from FoFJK, PRISM(SPDF).
 Do as many integral derivatives as possible in FoFJK.
 G2DrvN: MDV=      33495261.
 G2DrvN: will do    23 centers at a time, making    1 passes.
 Calling FoFCou, ICntrl=  3107 FMM=F I1Cent=   0 AccDes= 0.00D+00.
 FoFJK:  IHMeth=40 ICntrl=    3107 DoSepK=F KAlg= 0 I1Cent=   0 FoldK=F
 IRaf=         0 NMat=   1 IRICut=       1 DoRegI=T DoRafI=F ISym2E= 0.
 FoFCou: FMM=F IPFlag=           0 FMFlag=      100000 FMFlg1=           0
         NFxFlg=           0 DoJE=F BraDBF=F KetDBF=F FulRan=T
         wScrn=  0.000000 ICntrl=    3107 IOpCl=  0 I1Cent=           0 NGrid=           0
         NMat0=    1 NMatS0=      1 NMatT0=    0 NMatD0=    1 NMtDS0=    0 NMtDT0=    0
 Symmetry not used in FoFCou.
 End of G2Drv F.D. properties file   721 does not exist.
 End of G2Drv F.D. properties file   722 does not exist.
 End of G2Drv F.D. properties file   788 does not exist.
 Leave Link 1110 at Tue Feb 23 12:29:43 2021, MaxMem=    33554432 cpu:         0.0
 (Enter /cm/shared/apps/Gaussian09/g09/l1002.exe)
 Minotr:  Closed shell wavefunction.
          IDoAtm=1111111111111111111111
          Direct CPHF calculation.
          Differentiating once with respect to electric field.
                with respect to dipole field.
          Differentiating once with respect to nuclear coordinates.
          Electric field/nuclear overlap derivatives assumed to be zero.
          Requested convergence is 1.0D-08 RMS, and 1.0D-07 maximum.
          NewPWx=T KeepS1=F KeepF1=F KeepIn=T MapXYZ=F SortEE=F KeepMc=T.
          MDV=      33495259 using IRadAn=       2.
 Keep J ints in memory in canonical form, NReq=891094.
 FoFCou: FMM=F IPFlag=           0 FMFlag=           0 FMFlg1=           0
         NFxFlg=           0 DoJE=F BraDBF=F KetDBF=F FulRan=T
         wScrn=  0.000000 ICntrl=     600 IOpCl=  2 I1Cent=           0 NGrid=           0
         NMat0=    1 NMatS0=    130 NMatT0=    0 NMatD0=    1 NMtDS0=    0 NMtDT0=    0
 Symmetry not used in FoFCou.
          Solving linear equations separately, MaxMat=       0.
          There are    69 degrees of freedom in the 1st order CPHF.  IDoFFX=5 NUNeed=    69.
 LinEq1:  Iter=  0 NonCon=    69 RMS=2.43D-01 Max=4.88D+00 NDo=    69
 AX will form    69 AO Fock derivatives at one time.
 LinEq1:  Iter=  1 NonCon=    69 RMS=5.55D-02 Max=8.10D-01 NDo=    69
 LinEq1:  Iter=  2 NonCon=    69 RMS=1.26D-02 Max=1.49D-01 NDo=    69
 LinEq1:  Iter=  3 NonCon=    69 RMS=3.74D-03 Max=6.93D-02 NDo=    69
 LinEq1:  Iter=  4 NonCon=    69 RMS=9.90D-04 Max=1.49D-02 NDo=    69
 LinEq1:  Iter=  5 NonCon=    69 RMS=1.80D-04 Max=1.96D-03 NDo=    69
 LinEq1:  Iter=  6 NonCon=    69 RMS=3.28D-05 Max=2.48D-04 NDo=    69
 LinEq1:  Iter=  7 NonCon=    67 RMS=7.26D-06 Max=7.57D-05 NDo=    69
 LinEq1:  Iter=  8 NonCon=    45 RMS=1.76D-06 Max=1.92D-05 NDo=    69
 LinEq1:  Iter=  9 NonCon=    17 RMS=3.63D-07 Max=3.63D-06 NDo=    69
 LinEq1:  Iter= 10 NonCon=     3 RMS=7.52D-08 Max=1.08D-06 NDo=    69
 LinEq1:  Iter= 11 NonCon=     3 RMS=1.38D-08 Max=1.29D-07 NDo=    69
 LinEq1:  Iter= 12 NonCon=     0 RMS=2.54D-09 Max=2.50D-08 NDo=    69
 Linear equations converged to 1.000D-08 1.000D-07 after    12 iterations.
 FullF1:  Do perturbations    1 to     3.
 Isotropic polarizability for W=    0.000000       86.09 Bohr**3.
 End of Minotr F.D. properties file   721 does not exist.
 End of Minotr F.D. properties file   722 does not exist.
 End of Minotr F.D. properties file   788 does not exist.
 Leave Link 1002 at Tue Feb 23 12:29:43 2021, MaxMem=    33554432 cpu:         0.3
 (Enter /cm/shared/apps/Gaussian09/g09/l601.exe)
 Copying SCF densities to generalized density rwf, IOpCl= 0 IROHF=0.

 **********************************************************************

            Population analysis using the SCF density.

 **********************************************************************

 Alpha  occ. eigenvalues --   -1.20342  -1.20202  -1.19425  -1.11475  -1.07894
 Alpha  occ. eigenvalues --   -1.07070  -1.01923  -0.97135  -0.87995  -0.79523
 Alpha  occ. eigenvalues --   -0.75098  -0.71186  -0.65339  -0.63428  -0.62677
 Alpha  occ. eigenvalues --   -0.61429  -0.60290  -0.59478  -0.59241  -0.57124
 Alpha  occ. eigenvalues --   -0.55645  -0.53318  -0.52949  -0.52216  -0.50966
 Alpha  occ. eigenvalues --   -0.50513  -0.48401  -0.47473  -0.46119  -0.44528
 Alpha  occ. eigenvalues --   -0.44190  -0.42963  -0.40442  -0.36440
 Alpha virt. eigenvalues --   -0.18556  -0.00775  -0.00666   0.01398   0.05549
 Alpha virt. eigenvalues --    0.06599   0.09881   0.10959   0.11397   0.12776
 Alpha virt. eigenvalues --    0.12884   0.14563   0.14784   0.14941   0.15424
 Alpha virt. eigenvalues --    0.16544   0.16960   0.17454   0.17638   0.18985
 Alpha virt. eigenvalues --    0.19482   0.20174   0.20670   0.21099
          Condensed to atoms (all electrons):
               1          2          3          4          5          6
     1  O    6.248905   0.000000   0.000000   0.000000   0.000000   0.000000
     2  O    0.000000   6.214748   0.000000   0.000000   0.000000   0.000000
     3  C    0.000000   0.000000   3.416436   0.000000   0.000000   0.000000
     4  O    0.000000   0.000000   0.000000   6.444139   0.000000   0.000000
     5  C    0.000000   0.000000   0.000000   0.000000   4.418348   0.000000
     6  C    0.000000   0.000000   0.000000   0.000000   0.000000   4.176931
     7  C    0.000000   0.000000   0.000000   0.000000   0.000000   0.000000
     8  C    0.000000   0.000000   0.000000   0.000000   0.000000   0.000000
     9  O    0.000000   0.000000   0.000000   0.000000   0.000000   0.000000
    10  C    0.000000   0.000000   0.000000   0.000000   0.000000   0.000000
    11  O    0.000000   0.000000   0.000000   0.000000   0.000000   0.000000
    12  C    0.000000   0.000000   0.000000   0.000000   0.000000   0.000000
    13  H    0.000000   0.000000   0.000000   0.000000   0.000000   0.000000
    14  H    0.000000   0.000000   0.000000   0.000000   0.000000   0.000000
    15  H    0.000000   0.000000   0.000000   0.000000   0.000000   0.000000
    16  H    0.000000   0.000000   0.000000   0.000000   0.000000   0.000000
    17  H    0.000000   0.000000   0.000000   0.000000   0.000000   0.000000
    18  H    0.000000   0.000000   0.000000   0.000000   0.000000   0.000000
    19  H    0.000000   0.000000   0.000000   0.000000   0.000000   0.000000
    20  H    0.000000   0.000000   0.000000   0.000000   0.000000   0.000000
    21  H    0.000000   0.000000   0.000000   0.000000   0.000000   0.000000
    22  H    0.000000   0.000000   0.000000   0.000000   0.000000   0.000000
               7          8          9         10         11         12
     1  O    0.000000   0.000000   0.000000   0.000000   0.000000   0.000000
     2  O    0.000000   0.000000   0.000000   0.000000   0.000000   0.000000
     3  C    0.000000   0.000000   0.000000   0.000000   0.000000   0.000000
     4  O    0.000000   0.000000   0.000000   0.000000   0.000000   0.000000
     5  C    0.000000   0.000000   0.000000   0.000000   0.000000   0.000000
     6  C    0.000000   0.000000   0.000000   0.000000   0.000000   0.000000
     7  C    4.420047   0.000000   0.000000   0.000000   0.000000   0.000000
     8  C    0.000000   3.591327   0.000000   0.000000   0.000000   0.000000
     9  O    0.000000   0.000000   6.411649   0.000000   0.000000   0.000000
    10  C    0.000000   0.000000   0.000000   3.559366   0.000000   0.000000
    11  O    0.000000   0.000000   0.000000   0.000000   6.415808   0.000000
    12  C    0.000000   0.000000   0.000000   0.000000   0.000000   4.622534
    13  H    0.000000   0.000000   0.000000   0.000000   0.000000   0.000000
    14  H    0.000000   0.000000   0.000000   0.000000   0.000000   0.000000
    15  H    0.000000   0.000000   0.000000   0.000000   0.000000   0.000000
    16  H    0.000000   0.000000   0.000000   0.000000   0.000000   0.000000
    17  H    0.000000   0.000000   0.000000   0.000000   0.000000   0.000000
    18  H    0.000000   0.000000   0.000000   0.000000   0.000000   0.000000
    19  H    0.000000   0.000000   0.000000   0.000000   0.000000   0.000000
    20  H    0.000000   0.000000   0.000000   0.000000   0.000000   0.000000
    21  H    0.000000   0.000000   0.000000   0.000000   0.000000   0.000000
    22  H    0.000000   0.000000   0.000000   0.000000   0.000000   0.000000
              13         14         15         16         17         18
     1  O    0.000000   0.000000   0.000000   0.000000   0.000000   0.000000
     2  O    0.000000   0.000000   0.000000   0.000000   0.000000   0.000000
     3  C    0.000000   0.000000   0.000000   0.000000   0.000000   0.000000
     4  O    0.000000   0.000000   0.000000   0.000000   0.000000   0.000000
     5  C    0.000000   0.000000   0.000000   0.000000   0.000000   0.000000
     6  C    0.000000   0.000000   0.000000   0.000000   0.000000   0.000000
     7  C    0.000000   0.000000   0.000000   0.000000   0.000000   0.000000
     8  C    0.000000   0.000000   0.000000   0.000000   0.000000   0.000000
     9  O    0.000000   0.000000   0.000000   0.000000   0.000000   0.000000
    10  C    0.000000   0.000000   0.000000   0.000000   0.000000   0.000000
    11  O    0.000000   0.000000   0.000000   0.000000   0.000000   0.000000
    12  C    0.000000   0.000000   0.000000   0.000000   0.000000   0.000000
    13  H    0.714810   0.000000   0.000000   0.000000   0.000000   0.000000
    14  H    0.000000   0.792508   0.000000   0.000000   0.000000   0.000000
    15  H    0.000000   0.000000   0.811435   0.000000   0.000000   0.000000
    16  H    0.000000   0.000000   0.000000   0.853948   0.000000   0.000000
    17  H    0.000000   0.000000   0.000000   0.000000   0.852202   0.000000
    18  H    0.000000   0.000000   0.000000   0.000000   0.000000   0.807438
    19  H    0.000000   0.000000   0.000000   0.000000   0.000000   0.000000
    20  H    0.000000   0.000000   0.000000   0.000000   0.000000   0.000000
    21  H    0.000000   0.000000   0.000000   0.000000   0.000000   0.000000
    22  H    0.000000   0.000000   0.000000   0.000000   0.000000   0.000000
              19         20         21         22
     1  O    0.000000   0.000000   0.000000   0.000000
     2  O    0.000000   0.000000   0.000000   0.000000
     3  C    0.000000   0.000000   0.000000   0.000000
     4  O    0.000000   0.000000   0.000000   0.000000
     5  C    0.000000   0.000000   0.000000   0.000000
     6  C    0.000000   0.000000   0.000000   0.000000
     7  C    0.000000   0.000000   0.000000   0.000000
     8  C    0.000000   0.000000   0.000000   0.000000
     9  O    0.000000   0.000000   0.000000   0.000000
    10  C    0.000000   0.000000   0.000000   0.000000
    11  O    0.000000   0.000000   0.000000   0.000000
    12  C    0.000000   0.000000   0.000000   0.000000
    13  H    0.000000   0.000000   0.000000   0.000000
    14  H    0.000000   0.000000   0.000000   0.000000
    15  H    0.000000   0.000000   0.000000   0.000000
    16  H    0.000000   0.000000   0.000000   0.000000
    17  H    0.000000   0.000000   0.000000   0.000000
    18  H    0.000000   0.000000   0.000000   0.000000
    19  H    0.827188   0.000000   0.000000   0.000000
    20  H    0.000000   0.804923   0.000000   0.000000
    21  H    0.000000   0.000000   0.801117   0.000000
    22  H    0.000000   0.000000   0.000000   0.794195
 Mulliken charges:
               1
     1  O   -0.248905
     2  O   -0.214748
     3  C    0.583564
     4  O   -0.444139
     5  C   -0.418348
     6  C   -0.176931
     7  C   -0.420047
     8  C    0.408673
     9  O   -0.411649
    10  C    0.440634
    11  O   -0.415808
    12  C   -0.622534
    13  H    0.285190
    14  H    0.207492
    15  H    0.188565
    16  H    0.146052
    17  H    0.147798
    18  H    0.192562
    19  H    0.172812
    20  H    0.195077
    21  H    0.198883
    22  H    0.205805
 Sum of Mulliken charges =   0.00000
 Mulliken charges with hydrogens summed into heavy atoms:
               1
     1  O    0.036284
     2  O   -0.214748
     3  C    0.583564
     4  O   -0.444139
     5  C   -0.022291
     6  C    0.116920
     7  C   -0.054672
     8  C    0.408673
     9  O   -0.411649
    10  C    0.440634
    11  O   -0.415808
    12  C   -0.022768
 APT charges:
               1
     1  O   -0.279621
     2  O   -0.395203
     3  C    1.086620
     4  O   -0.658593
     5  C   -0.523030
     6  C   -0.089981
     7  C   -0.665581
     8  C    0.863656
     9  O   -0.678782
    10  C    0.984523
    11  O   -0.722136
    12  C   -0.989226
    13  H    0.321759
    14  H    0.175963
    15  H    0.181102
    16  H    0.133251
    17  H    0.133939
    18  H    0.208429
    19  H    0.179811
    20  H    0.241417
    21  H    0.241132
    22  H    0.250592
 Sum of APT charges =   0.00004
 APT charges with hydrogens summed into heavy atoms:
               1
     1  O    0.042138
     2  O   -0.395203
     3  C    1.086620
     4  O   -0.658593
     5  C   -0.165965
     6  C    0.177209
     7  C   -0.277341
     8  C    0.863656
     9  O   -0.678782
    10  C    0.984523
    11  O   -0.722136
    12  C   -0.256085
 Charge=              0.0000 electrons
 Dipole moment (field-independent basis, Debye):
    X=             -0.8350    Y=              2.3946    Z=             -0.8427  Tot=              2.6724
 N-N= 4.208975735409D+02 E-N=-7.555886317195D+02  KE=-3.930314935907D+01
  Exact polarizability:  89.178  14.080  94.825 -12.127   8.397  74.273
 Approx polarizability:  63.552  27.246  77.597  -7.881   0.609  61.949
 Leave Link  601 at Tue Feb 23 12:29:43 2021, MaxMem=    33554432 cpu:         0.0
 (Enter /cm/shared/apps/Gaussian09/g09/l701.exe)
 Compute integral second derivatives.
 ... and contract with generalized density number  0.
 Leave Link  701 at Tue Feb 23 12:29:43 2021, MaxMem=    33554432 cpu:         0.1
 (Enter /cm/shared/apps/Gaussian09/g09/l702.exe)
 L702 exits ... SP integral derivatives will be done elsewhere.
 Leave Link  702 at Tue Feb 23 12:29:43 2021, MaxMem=    33554432 cpu:         0.0
 (Enter /cm/shared/apps/Gaussian09/g09/l703.exe)
 Compute integral second derivatives, UseDBF=F ICtDFT=           0.
 Integral derivatives from FoFJK, PRISM(SPDF).
 Calling FoFJK, ICntrl=    100127 FMM=F ISym2X=0 I1Cent= 0 IOpClX= 0 NMat=1 NMatS=1 NMatT=0.
 FoFJK:  IHMeth=40 ICntrl=  100127 DoSepK=F KAlg= 0 I1Cent=   0 FoldK=F
 IRaf=         0 NMat=   1 IRICut=       1 DoRegI=T DoRafI=F ISym2E= 0.
 FoFCou: FMM=F IPFlag=           0 FMFlag=      100000 FMFlg1=         800
         NFxFlg=           0 DoJE=F BraDBF=F KetDBF=F FulRan=T
         wScrn=  0.000000 ICntrl=  100127 IOpCl=  0 I1Cent=           0 NGrid=           0
         NMat0=    1 NMatS0=      1 NMatT0=    0 NMatD0=    1 NMtDS0=    0 NMtDT0=    0
 Symmetry not used in FoFCou.
 Leave Link  703 at Tue Feb 23 12:29:43 2021, MaxMem=    33554432 cpu:         0.0
 (Enter /cm/shared/apps/Gaussian09/g09/l716.exe)
 Dipole        =-3.28524822D-01 9.42110901D-01-3.31535841D-01
 Polarizability= 8.91783557D+01 1.40803705D+01 9.48252376D+01
                -1.21269448D+01 8.39671075D+00 7.42725102D+01
 HyperPolar    =-1.39406470D+02-1.90240412D+02 1.16492383D+02
                -2.98120969D+02-1.13772359D+02 3.54908600D+01
                -1.17426808D+02 5.70810886D+01-2.81670189D+01
                -3.40770621D+01
 -------------------------------------------------------------------
 Center     Atomic                   Forces (Hartrees/Bohr)
 Number     Number              X              Y              Z
 -------------------------------------------------------------------
      1        8           0.048752326    0.084026113   -0.043978499
      2        8          -0.052641177   -0.082172877    0.049841712
      3        6          -0.000152145   -0.000976277    0.001423622
      4        8           0.031250747    0.008924999   -0.002261857
      5        6          -0.024519617   -0.024381105   -0.022953929
      6        6          -0.000454531    0.000082994   -0.000425844
      7        6          -0.000493118   -0.000416309    0.000457611
      8        6          -0.000502934   -0.000107392    0.000230409
      9        8           0.000162972    0.000440151   -0.000467634
     10        6          -0.000361053   -0.000851231   -0.000194737
     11        8           0.001823347    0.000311344   -0.000361358
     12        6           0.000405288   -0.000228282   -0.000026146
     13        1          -0.000274130    0.000318066    0.000148221
     14        1          -0.004151033    0.017196632    0.017640631
     15        1           0.000401933   -0.000261896    0.000862989
     16        1           0.000245963   -0.000217247    0.000421305
     17        1          -0.000046466   -0.000193864   -0.001103473
     18        1          -0.000238926   -0.000515759    0.000558600
     19        1           0.000086459   -0.000036986    0.000365374
     20        1           0.000138269    0.000072375   -0.000152133
     21        1          -0.000134642   -0.000287106    0.000066567
     22        1           0.000702469   -0.000726344   -0.000091430
 -------------------------------------------------------------------
 Cartesian Forces:  Max     0.084026113 RMS     0.020151372
 Leave Link  716 at Tue Feb 23 12:29:43 2021, MaxMem=    33554432 cpu:         0.0
 (Enter /cm/shared/apps/Gaussian09/g09/l103.exe)

 GradGradGradGradGradGradGradGradGradGradGradGradGradGradGradGradGradGrad
 Berny optimization.
 Search for a saddle point.
 Step number   1 out of a maximum of  100
 All quantities printed in internal units (Hartrees-Bohrs-Radians)
 Swapping is turned off.
 Second derivative matrix not updated -- analytic derivatives used.
 ITU=  0
     Eigenvalues ---   -0.08891  -0.00541  -0.00069   0.00010   0.00029
     Eigenvalues ---    0.00045   0.00065   0.00075   0.00462   0.00631
     Eigenvalues ---    0.00777   0.01174   0.01580   0.01972   0.02932
     Eigenvalues ---    0.03273   0.03500   0.03610   0.04068   0.04349
     Eigenvalues ---    0.04635   0.05265   0.05497   0.05806   0.05907
     Eigenvalues ---    0.06338   0.07139   0.07468   0.07821   0.08930
     Eigenvalues ---    0.10322   0.10661   0.11491   0.14112   0.14823
     Eigenvalues ---    0.17235   0.18063   0.20878   0.24304   0.25215
     Eigenvalues ---    0.28086   0.31012   0.39410   0.45104   0.49508
     Eigenvalues ---    0.50266   0.52830   0.56530   0.57190   0.59320
     Eigenvalues ---    0.59848   0.60188   0.63598   0.67922   0.68467
     Eigenvalues ---    0.69778   0.71643   1.68379   1.69490   1.70291
 Eigenvectors required to have negative eigenvalues:
                          Y2        Y1        X1        Z1        X2
   1                    0.57128  -0.56268  -0.36329   0.24614   0.22563
                          Z2        Z4        Z3        Y13       Y3
   1                   -0.22190   0.13751  -0.11935  -0.08202   0.07564
 Eigenvalue     2 is  -5.41D-03 should be greater than     0.000000 Eigenvector:
                          Y4        Z4        Y2        Y1        Y15
   1                    0.66025  -0.34676  -0.18380  -0.17501  -0.17145
                          Z16       Y18       Y16       Y14       Y5
   1                    0.14932  -0.14162  -0.13375  -0.13285  -0.13272
 Eigenvalue     3 is  -6.93D-04 should be greater than     0.000000 Eigenvector:
                          Z14       X15       X2        X1        Z4
   1                    0.40533   0.40088  -0.27102  -0.25754  -0.24214
                          Z5        X13       Y15       Z15       X5
   1                    0.19728  -0.19071   0.18750   0.17697   0.17195
 RFO step:  Lambda0=1.072475282D-01 Lambda=-2.61150432D-02.
 Linear search not attempted -- option 19 set.
 Maximum step size (   0.300) exceeded in Quadratic search.
    -- Step size scaled by   0.237
 TrRot=  0.008217  0.012611  0.004242 -1.588735 -0.000768  1.590442
 Variable       Old X    -DE/DX   Delta X   Delta X   Delta X     New X
                                 (Linear)    (Quad)   (Total)
    X1       -1.02662   0.04875   0.00000  -0.06366  -0.05096  -1.07759
    Y1       -2.52445   0.08403   0.00000  -0.10877  -0.09915  -2.62360
    Z1       -1.52756  -0.04398   0.00000   0.05015   0.05643  -1.47113
    X2        0.87979  -0.05264   0.00000   0.06250   0.06961   0.94939
    Y2        0.56387  -0.08217   0.00000   0.05783   0.06969   0.63357
    Z2       -3.07756   0.04984   0.00000   0.00814   0.01189  -3.06567
    X3        1.21788  -0.00015   0.00000   0.03710   0.04216   1.26004
    Y3        1.79751  -0.00098   0.00000   0.04245   0.05656   1.85408
    Z3       -0.81155   0.00142   0.00000  -0.02439  -0.02158  -0.83313
    X4        3.33044   0.03125   0.00000   0.00590   0.00982   3.34026
    Y4        2.35472   0.00892   0.00000   0.15886   0.17702   2.53174
    Z4       -0.21017  -0.00226   0.00000   0.02239   0.02465  -0.18551
    X5       -1.00392  -0.02452   0.00000  -0.02583  -0.02165  -1.02557
    Y5        2.41838  -0.02438   0.00000  -0.04679  -0.03534   2.38304
    Z5        0.83861  -0.02295   0.00000  -0.04893  -0.04650   0.79212
    X6       -1.82039  -0.00045   0.00000  -0.00975  -0.01029  -1.83068
    Y6        5.16048   0.00008   0.00000  -0.03239  -0.02256   5.13792
    Z6        0.47770  -0.00043   0.00000  -0.00988  -0.00955   0.46815
    X7       -3.93874  -0.00049   0.00000   0.00025  -0.00168  -3.94042
    Y7        5.99354  -0.00042   0.00000  -0.02736  -0.01975   5.97379
    Z7        2.26675   0.00046   0.00000  -0.00042  -0.00069   2.26606
    X8       -6.53637  -0.00050   0.00000  -0.00569  -0.00632  -6.54269
    Y8        5.20154  -0.00011   0.00000  -0.00159   0.00091   5.20245
    Z8        1.40221   0.00023   0.00000  -0.00546  -0.00511   1.39709
    X9       -6.98882   0.00016   0.00000  -0.01567  -0.01369  -7.00250
    Y9        3.63663   0.00044   0.00000   0.01460   0.01509   3.65172
    Z9       -0.18415  -0.00047   0.00000  -0.01854  -0.01699  -0.20114
   X10       -8.74121  -0.00036   0.00000   0.00539   0.00234  -8.73887
   Y10        6.61848  -0.00085   0.00000   0.00643   0.00622   6.62470
   Z10        2.74061  -0.00019   0.00000   0.00234   0.00163   2.74224
   X11       -9.64701   0.00182   0.00000   0.00743   0.00578  -9.64123
   Y11        5.81855   0.00031   0.00000   0.00633   0.00605   5.82460
   Z11        4.66817  -0.00036   0.00000   0.00299   0.00291   4.67108
   X12       -9.58144   0.00041   0.00000   0.01519   0.00810  -9.57334
   Y12        8.96939  -0.00023   0.00000   0.01449   0.01185   8.98124
   Z12        1.42047  -0.00003   0.00000   0.01078   0.00827   1.42874
   X13       -0.40657  -0.00027   0.00000  -0.04102  -0.02664  -0.43322
   Y13       -3.55265   0.00032   0.00000  -0.08028  -0.07066  -3.62331
   Z13       -2.95396   0.00015   0.00000   0.04057   0.04761  -2.90635
   X14       -2.43841  -0.00415   0.00000  -0.01737  -0.01076  -2.44917
   Y14        0.96533   0.01720   0.00000  -0.01967  -0.01127   0.95406
   Z14        0.02620   0.01764   0.00000  -0.04014  -0.03659  -0.01039
   X15       -0.63146   0.00040   0.00000  -0.02271  -0.01767  -0.64913
   Y15        1.95038  -0.00026   0.00000  -0.06385  -0.05022   1.90016
   Z15        2.83045   0.00086   0.00000  -0.04965  -0.04684   2.78360
   X16       -0.16082   0.00025   0.00000   0.00072  -0.00194  -0.16276
   Y16        6.41827  -0.00022   0.00000  -0.04679  -0.03387   6.38440
   Z16        0.76336   0.00042   0.00000   0.00539   0.00475   0.76810
   X17       -2.44024  -0.00005   0.00000  -0.00674  -0.00785  -2.44809
   Y17        5.45645  -0.00019   0.00000  -0.00410   0.00317   5.45962
   Z17       -1.50444  -0.00110   0.00000  -0.00707  -0.00698  -1.51141
   X18       -3.61035  -0.00024   0.00000  -0.00355  -0.00416  -3.61450
   Y18        5.23507  -0.00052   0.00000  -0.03311  -0.02346   5.21161
   Z18        4.20061   0.00056   0.00000  -0.00239  -0.00208   4.19852
   X19       -3.86824   0.00009   0.00000   0.01561   0.01012  -3.85812
   Y19        8.08012  -0.00004   0.00000  -0.02728  -0.01934   8.06077
   Z19        2.48876   0.00037   0.00000   0.00644   0.00456   2.49333
   X20       -8.29315   0.00014   0.00000   0.01996   0.01017  -8.28298
   Y20       10.55529   0.00007   0.00000   0.00925   0.00910  10.56440
   Z20        1.79334  -0.00015   0.00000   0.01642   0.01268   1.80601
   X21       -9.70002  -0.00013   0.00000   0.01310   0.00637  -9.69365
   Y21        8.73266  -0.00029   0.00000   0.02203   0.01760   8.75025
   Z21       -0.64084   0.00007   0.00000   0.01002   0.00769  -0.63315
   X22      -11.46737   0.00070   0.00000   0.01727   0.00915 -11.45822
   Y22        9.57596  -0.00073   0.00000   0.01772   0.01236   9.58832
   Z22        2.07786  -0.00009   0.00000   0.01280   0.00986   2.08772
         Item               Value     Threshold  Converged?
 Maximum Force            0.084026     0.000450     NO 
 RMS     Force            0.020151     0.000300     NO 
 Maximum Displacement     0.177022     0.001800     NO 
 RMS     Displacement     0.036332     0.001200     NO 
 Predicted change in Energy= 1.774309D-02
 Lowest energy point so far.  Saving SCF results.
 GradGradGradGradGradGradGradGradGradGradGradGradGradGradGradGradGradGrad

 Leave Link  103 at Tue Feb 23 12:29:43 2021, MaxMem=    33554432 cpu:         0.0
 (Enter /cm/shared/apps/Gaussian09/g09/l202.exe)
                          Input orientation:                          
 ---------------------------------------------------------------------
 Center     Atomic      Atomic             Coordinates (Angstroms)
 Number     Number       Type             X           Y           Z
 ---------------------------------------------------------------------
      1          8           0       -0.570235   -1.388348   -0.778489
      2          8           0        0.502398    0.335270   -1.622283
      3          6           0        0.666783    0.981134   -0.440873
      4          8           0        1.767590    1.339739   -0.098170
      5          6           0       -0.542709    1.261053    0.419170
      6          6           0       -0.968754    2.718870    0.247737
      7          6           0       -2.085183    3.161194    1.199146
      8          6           0       -3.462245    2.753019    0.739309
      9          8           0       -3.705564    1.932409   -0.106440
     10          6           0       -4.624410    3.505639    1.451133
     11          8           0       -5.101918    3.082247    2.471831
     12          6           0       -5.065994    4.752668    0.756054
     13          1           0       -0.229248   -1.917373   -1.537975
     14          1           0       -1.296044    0.504867   -0.005500
     15          1           0       -0.343506    1.005522    1.473019
     16          1           0       -0.086126    3.378478    0.406463
     17          1           0       -1.295473    2.889107   -0.799806
     18          1           0       -1.912713    2.757866    2.221763
     19          1           0       -2.041628    4.265578    1.319412
     20          1           0       -4.383164    5.590437    0.955700
     21          1           0       -5.129657    4.630434   -0.335047
     22          1           0       -6.063427    5.073920    1.104773
 ---------------------------------------------------------------------
                    Distance matrix (angstroms):
                    1          2          3          4          5
     1  O    0.000000
     2  O    2.198497   0.000000
     3  C    2.694187   1.356426   0.000000
     4  O    3.656599   2.220943   1.207401   0.000000
     5  C    2.907657   2.473228   1.510266   2.368821   0.000000
     6  C    4.252199   3.367909   2.483726   3.083705   1.528442
     7  C    5.186949   4.758349   3.875002   4.454726   2.568681
     8  C    5.274311   5.209704   4.645566   5.481779   3.294259
     9  O    4.616207   4.749271   4.487114   5.505156   3.275765
    10  C    6.734883   6.766187   6.160319   6.924530   4.771099
    11  O    7.147514   7.464316   6.795325   7.538659   5.321330
    12  C    7.763939   7.495124   6.965762   7.686068   5.724069
    13  H    0.986387   2.369982   3.226120   4.082790   3.745807
    14  H    2.169925   2.424282   2.066173   3.176704   1.148771
    15  H    3.294132   3.278061   2.164316   2.652746   1.102531
    16  H    4.935696   3.704495   2.651812   2.801316   2.166130
    17  H    4.338553   3.229689   2.760370   3.503596   2.168667
    18  H    5.291016   5.145718   4.110986   4.575784   2.714166
    19  H    6.207501   5.529282   4.606698   5.008015   3.476257
    20  H    8.139367   7.624402   6.978400   7.550553   5.812102
    21  H    7.563776   7.198990   6.850351   7.645705   5.741225
    22  H    8.688081   8.544103   8.027182   8.758767   6.744356
                    6          7          8          9         10
     6  C    0.000000
     7  C    1.532071   0.000000
     8  C    2.541713   1.508097   0.000000
     9  O    2.869510   2.416630   1.203286   0.000000
    10  C    3.928229   2.574842   1.556842   2.396948   0.000000
    11  O    4.707620   3.275157   2.408018   3.149509   1.203785
    12  C    4.602401   3.407984   2.563374   3.247849   1.494394
    13  H    5.022986   6.060377   6.119711   5.380975   7.593502
    14  H    2.252345   3.021587   3.209573   2.802473   4.712158
    15  H    2.197229   2.784846   3.649467   3.828478   4.957540
    16  H    1.113242   2.161432   3.449661   3.931223   4.658704
    17  H    1.110437   2.166445   2.661258   2.684132   4.065545
    18  H    2.188460   1.112729   2.144468   3.052249   2.916562
    19  H    2.166068   1.111767   2.154648   3.200846   2.695482
    20  H    4.517223   3.352791   2.990963   3.868909   2.156395
    21  H    4.615931   3.712309   2.731153   3.059353   2.170457
    22  H    5.677716   4.415185   3.505181   4.110431   2.156443
                   11         12         13         14         15
    11  O    0.000000
    12  C    2.394887   0.000000
    13  H    8.050942   8.552551   0.000000
    14  H    5.221565   5.730297   3.058395   0.000000
    15  H    5.287050   6.070999   4.197911   1.828661   0.000000
    16  H    5.432464   5.177808   5.643346   3.145036   2.614327
    17  H    5.022941   4.484461   4.978351   2.513070   3.101591
    18  H    3.215399   4.008830   6.231175   3.227536   2.468550
    19  H    3.477603   3.114710   7.048281   4.056383   3.679019
    20  H    3.017661   1.099078   8.935360   6.026379   6.132529
    21  H    3.205654   1.099771   8.266488   5.641409   6.270274
    22  H    2.600021   1.104392   9.481559   6.696036   7.028867
                   16         17         18         19         20
    16  H    0.000000
    17  H    1.776820   0.000000
    18  H    2.648941   3.086760   0.000000
    19  H    2.333326   2.634864   1.761832   0.000000
    20  H    4.864048   4.462379   3.966044   2.714836   0.000000
    21  H    5.249232   4.236648   4.515808   3.522255   1.773383
    22  H    6.252223   5.579804   4.882643   4.107841   1.764170
                   21         22
    21  H    0.000000
    22  H    1.772481   0.000000
 Symmetry turned off by external request.
 Stoichiometry    C7H10O5
 Framework group  C1[X(C7H10O5)]
 Deg. of freedom    60
 Full point group                 C1      NOp   1
 Rotational constants (GHZ):      1.8988548      0.3511156      0.3249162
 Leave Link  202 at Tue Feb 23 12:29:43 2021, MaxMem=    33554432 cpu:         0.0
 (Enter /cm/shared/apps/Gaussian09/g09/l301.exe)
 Standard basis: VSTO-6G (5D, 7F)
 Ernie: Thresh=  0.10000D-02 Tol=  0.10000D-05 Strict=F.
  NNHCO=     0 NNPyr=     0 NCTC=     0               EPep=         0.000000000
    EC=       325.741416049  ECS=         4.452213484   EG=         0.369725321
   EHC=         0.001762687  EAt=       -86.526901464  AtH=         3.211178636
 EPDDG=         0.000000000  ECC=       330.565117541 EAtT=        89.738080100
    58 basis functions,   348 primitive gaussians,    58 cartesian basis functions
    34 alpha electrons       34 beta electrons
       nuclear repulsion energy       420.3031976412 Hartrees.
 IExCor=    0 DFT=F Ex=HF Corr=None ExCW=0 ScaHFX=  1.000000
 ScaDFX=  1.000000  1.000000  1.000000  1.000000 ScalE2=  1.000000  1.000000
 IRadAn=      0 IRanWt=     -1 IRanGd=            0 ICorTp=0 IEmpDi=  4
 Integral buffers will be    131072 words long.
 Regular integral format.
 Two-electron integral symmetry is turned off.
 Leave Link  301 at Tue Feb 23 12:29:43 2021, MaxMem=    33554432 cpu:         0.0
 (Enter /cm/shared/apps/Gaussian09/g09/l302.exe)
 Do NDO integrals.
 NPDir=0 NMtPBC=     1 NCelOv=     1 NCel=       1 NClECP=     1 NCelD=      1
         NCelK=      1 NCelE2=     1 NClLst=     1 CellRange=     0.0.
 One-electron integrals computed using PRISM.
 NBasis=    58 RedAO= F EigKep=  0.00D+00  NBF=    58
 NBsUse=    58 1.00D-04 EigRej=  0.00D+00 NBFU=    58
 Leave Link  302 at Tue Feb 23 12:29:44 2021, MaxMem=    33554432 cpu:         0.1
 (Enter /cm/shared/apps/Gaussian09/g09/l303.exe)
 DipDrv:  MaxL=1.
 Leave Link  303 at Tue Feb 23 12:29:44 2021, MaxMem=    33554432 cpu:         0.0
 (Enter /cm/shared/apps/Gaussian09/g09/l401.exe)
 Initial guess from the checkpoint file:  "/local/Gau-59166.chk"
 B after Tr=     0.015256    0.024080    0.008761
         Rot=    0.999998    0.001082   -0.000199   -0.001748 Ang=   0.24 deg.
 Guess basis will be translated and rotated to current coordinates.
 JPrj=0 DoOrth=T DoCkMO=T.
 Leave Link  401 at Tue Feb 23 12:29:44 2021, MaxMem=    33554432 cpu:         0.1
 (Enter /cm/shared/apps/Gaussian09/g09/l508.exe)
 Direct SCF.
 Tight linear equation convergence will be used.
 RPM6 wavefunction.
 Quadratic Convergence SCF Method.
 Line search only if initial step raises energy.
 Two-electron integral symmetry not used.
 ReadGW:  IGet=1 IStart=       59293 Next=       59293 LGW=           0.
 Keep J ints in memory in canonical form, NReq=910647.
 FoFCou: FMM=F IPFlag=           0 FMFlag=           0 FMFlg1=           0
         NFxFlg=           0 DoJE=F BraDBF=F KetDBF=F FulRan=T
         wScrn=  0.000000 ICntrl=     600 IOpCl=  2 I1Cent=           0 NGrid=           0
         NMat0=    1 NMatS0=    130 NMatT0=    0 NMatD0=    1 NMtDS0=    0 NMtDT0=    0
 Symmetry not used in FoFCou.
 Iteration   1 EE=-0.697389107465369E-01                                Grad=5.048D-02 Max rot=    0.6405 deg.
 Gradient too large for Newton-Raphson -- use scaled steepest descent instead.
 Alpha Gap=     0.163 HL deriv= 2.15D-03
     ILin= 1 X=0.000D+00 Y=-6.973891074654D-02 DE= 0.00D+00 F= -6.03D-03
     ILin= 2 X=3.000D-01 Y=-7.137971489948D-02 DE=-1.64D-03 F= -4.91D-03
     ILin= 3 X=6.000D-01 Y=-7.268526144094D-02 DE=-2.95D-03 F= -3.79D-03
     ILin= 4 X=1.200D+00 Y=-7.429079865472D-02 DE=-4.55D-03 F= -1.56D-03
     ILin= 5 X=2.400D+00 Y=-7.348531154730D-02 DE=-3.75D-03 F=  2.90D-03
     An  expanding polynomial of degree  5 produced  1.6192
 Iteration   2 EE=-0.746174735323279E-01 Delta-E=       -0.004878562786 Grad=1.010D-02 Max rot=    0.1094 deg.
 Gradient too large for Newton-Raphson -- use scaled steepest descent instead.
 Alpha Gap=     0.162 HL deriv= 1.92D-03
     ILin= 1 X=0.000D+00 Y=-7.461747353233D-02 DE= 0.00D+00 F= -3.20D-04
     ILin= 2 X=7.000D-01 Y=-7.479989848065D-02 DE=-1.82D-04 F= -2.01D-04
     ILin= 3 X=1.400D+00 Y=-7.489874227019D-02 DE=-2.81D-04 F= -8.13D-05
     ILin= 4 X=2.800D+00 Y=-7.484422562061D-02 DE=-2.27D-04 F=  1.60D-04
     An  expanding polynomial of degree  4 produced  1.8740
 Iteration   3 EE=-0.749180280435553E-01 Delta-E=       -0.000300554511 Grad=5.775D-03 Max rot=    0.0777 deg.
 QCNR:  CnvC1=4.04D-09 CnvC2=4.04D-08
 LinEq1:  Iter=  0 NonCon=     1 RMS=3.40D-04 Max=6.96D-03 NDo=     1
 AX will form     1 AO Fock derivatives at one time.
 LinEq1:  Iter=  1 NonCon=     1 RMS=1.29D-04 Max=1.38D-03 NDo=     1
 LinEq1:  Iter=  2 NonCon=     1 RMS=3.16D-05 Max=4.31D-04 NDo=     1
 LinEq1:  Iter=  3 NonCon=     1 RMS=8.15D-06 Max=1.13D-04 NDo=     1
 LinEq1:  Iter=  4 NonCon=     1 RMS=2.17D-06 Max=1.91D-05 NDo=     1
 LinEq1:  Iter=  5 NonCon=     1 RMS=4.41D-07 Max=5.56D-06 NDo=     1
 LinEq1:  Iter=  6 NonCon=     1 RMS=8.11D-08 Max=6.24D-07 NDo=     1
 LinEq1:  Iter=  7 NonCon=     1 RMS=1.48D-08 Max=1.51D-07 NDo=     1
 LinEq1:  Iter=  8 NonCon=     0 RMS=3.28D-09 Max=2.62D-08 NDo=     1
 Linear equations converged to 4.040D-09 4.040D-08 after     8 iterations.
 Angle between quadratic step and gradient=  60.54 degrees.
     ILin= 1 X=0.000D+00 Y=-7.491802804356D-02 DE= 0.00D+00 F= -5.43D-04
     ILin= 2 X=1.000D+00 Y=-7.518589798559D-02 DE=-2.68D-04 F=  1.28D-05
     Accept linear search using points  1 and  2.
     An  expanding polynomial of degree  2 produced  0.9777
     Minimum is close to point  2 DX= -2.23D-02 DF= -1.42D-07 DXR=  2.28D-02 DFR=  5.30D-04 which will be used.
 Iteration   4 EE=-0.751858979855911E-01 Delta-E=       -0.000267869942 Grad=8.797D-04 Max rot=    0.0193 deg.
 QCNR:  CnvC1=4.04D-09 CnvC2=4.04D-08
 LinEq1:  Iter=  0 NonCon=     1 RMS=6.17D-05 Max=1.20D-03 NDo=     1
 LinEq1:  Iter=  1 NonCon=     1 RMS=1.24D-05 Max=1.39D-04 NDo=     1
 LinEq1:  Iter=  2 NonCon=     1 RMS=4.77D-06 Max=6.82D-05 NDo=     1
 LinEq1:  Iter=  3 NonCon=     1 RMS=1.08D-06 Max=9.45D-06 NDo=     1
 LinEq1:  Iter=  4 NonCon=     1 RMS=2.14D-07 Max=2.40D-06 NDo=     1
 LinEq1:  Iter=  5 NonCon=     1 RMS=4.82D-08 Max=5.59D-07 NDo=     1
 LinEq1:  Iter=  6 NonCon=     1 RMS=1.31D-08 Max=1.48D-07 NDo=     1
 LinEq1:  Iter=  7 NonCon=     0 RMS=2.77D-09 Max=2.62D-08 NDo=     1
 Linear equations converged to 4.040D-09 4.040D-08 after     7 iterations.
 Angle between quadratic step and gradient=  41.18 degrees.
     ILin= 1 X=0.000D+00 Y=-7.518589798559D-02 DE= 0.00D+00 F= -4.22D-06
     ILin= 2 X=1.000D+00 Y=-7.518800795344D-02 DE=-2.11D-06 F= -4.92D-09
     Reject lnstep minimum 1.001D+00 FVal=-7.518800795633D-02 Lims=  0.00D+00  1.00D+00
     ILin= 3 X=2.000D+00 Y=-7.518591144412D-02 DE=-1.35D-08 F=  4.20D-06
     An  expanding polynomial of degree  3 produced  1.0016
     Minimum is close to point  2 DX=  1.60D-03 DF= -5.38D-12 DXR=  1.60D-03 DFR=  2.55D-06 which will be used.
 Iteration   5 EE=-0.751880079534430E-01 Delta-E=       -0.000002109968 Grad=6.770D-06 Max rot=    0.0001 deg.
 QCNR:  CnvC1=6.77D-11 CnvC2=6.77D-10
 LinEq1:  Iter=  0 NonCon=     1 RMS=2.70D-07 Max=2.37D-06 NDo=     1
 LinEq1:  Iter=  1 NonCon=     1 RMS=8.11D-08 Max=8.91D-07 NDo=     1
 LinEq1:  Iter=  2 NonCon=     1 RMS=2.33D-08 Max=3.92D-07 NDo=     1
 LinEq1:  Iter=  3 NonCon=     1 RMS=7.03D-09 Max=9.75D-08 NDo=     1
 LinEq1:  Iter=  4 NonCon=     1 RMS=2.25D-09 Max=2.79D-08 NDo=     1
 LinEq1:  Iter=  5 NonCon=     1 RMS=4.47D-10 Max=4.99D-09 NDo=     1
 LinEq1:  Iter=  6 NonCon=     1 RMS=9.14D-11 Max=1.06D-09 NDo=     1
 LinEq1:  Iter=  7 NonCon=     0 RMS=2.75D-11 Max=2.71D-10 NDo=     1
 Linear equations converged to 6.770D-11 6.770D-10 after     7 iterations.
 Angle between quadratic step and gradient=  60.29 degrees.
     ILin= 1 X=0.000D+00 Y=-7.518800795344D-02 DE= 0.00D+00 F= -2.15D-10
     ILin= 2 X=1.000D+00 Y=-7.518800806008D-02 DE=-1.07D-10
 Iteration   6 EE=-0.751880080600813E-01 Delta-E=       -0.000000000107 Grad=5.092D-08 Max rot=    0.0000 deg.
 Rotation gradient small -- convergence achieved.
 SCF Done:  E(RPM6) = -0.751880080601E-01 a.u. after    6 cycles
            Convg  =    0.5092D-07                    36 Fock formations.
              S**2 =  0.0000                  -V/T =  0.9981
 Leave Link  508 at Tue Feb 23 12:29:44 2021, MaxMem=    33554432 cpu:         0.0
 (Enter /cm/shared/apps/Gaussian09/g09/l801.exe)
 Range of M.O.s used for correlation:     1    58
 NBasis=    58 NAE=    34 NBE=    34 NFC=     0 NFV=     0
 NROrb=     58 NOA=    34 NOB=    34 NVA=    24 NVB=    24
 Leave Link  801 at Tue Feb 23 12:29:44 2021, MaxMem=    33554432 cpu:         0.0
 (Enter /cm/shared/apps/Gaussian09/g09/l1101.exe)
 Using compressed storage, NAtomX=    22.
 Will process     23 centers per pass.
 Leave Link 1101 at Tue Feb 23 12:29:44 2021, MaxMem=    33554432 cpu:         0.0
 (Enter /cm/shared/apps/Gaussian09/g09/l1102.exe)
 Symmetrizing basis deriv contribution to polar:
 IMax=3 JMax=2 DiffMx= 0.00D+00
 Leave Link 1102 at Tue Feb 23 12:29:44 2021, MaxMem=    33554432 cpu:         0.0
 (Enter /cm/shared/apps/Gaussian09/g09/l1110.exe)
 Forming Gx(P) for the SCF density, NAtomX=    22.
 Integral derivatives from FoFJK, PRISM(SPDF).
 Do as many integral derivatives as possible in FoFJK.
 G2DrvN: MDV=      33495261.
 G2DrvN: will do    23 centers at a time, making    1 passes.
 Calling FoFCou, ICntrl=  3107 FMM=F I1Cent=   0 AccDes= 0.00D+00.
 FoFJK:  IHMeth=40 ICntrl=    3107 DoSepK=F KAlg= 0 I1Cent=   0 FoldK=F
 IRaf=         0 NMat=   1 IRICut=       1 DoRegI=T DoRafI=F ISym2E= 0.
 FoFCou: FMM=F IPFlag=           0 FMFlag=      100000 FMFlg1=           0
         NFxFlg=           0 DoJE=F BraDBF=F KetDBF=F FulRan=T
         wScrn=  0.000000 ICntrl=    3107 IOpCl=  0 I1Cent=           0 NGrid=           0
         NMat0=    1 NMatS0=      1 NMatT0=    0 NMatD0=    1 NMtDS0=    0 NMtDT0=    0
 Symmetry not used in FoFCou.
 End of G2Drv F.D. properties file   721 does not exist.
 End of G2Drv F.D. properties file   722 does not exist.
 End of G2Drv F.D. properties file   788 does not exist.
 Leave Link 1110 at Tue Feb 23 12:29:44 2021, MaxMem=    33554432 cpu:         0.0
 (Enter /cm/shared/apps/Gaussian09/g09/l1002.exe)
 Minotr:  Closed shell wavefunction.
          IDoAtm=1111111111111111111111
          Direct CPHF calculation.
          Differentiating once with respect to electric field.
                with respect to dipole field.
          Differentiating once with respect to nuclear coordinates.
          Electric field/nuclear overlap derivatives assumed to be zero.
[...]
 060764,0.00010464,-0.00027165,0.00080465,0.00077115,0.00028210,0.00321
 336,-0.00004524,-0.00137361,0.01863511,-0.00374930,0.00793058,0.001734
 82,0.00004879,0.00127185,0.03184393,-0.09856308,0.04683686,0.00482890,
 0.01799466,0.00861559,-0.02646638,0.40137484,0.00047177,-0.00013397,-0
 .00001880,-0.00030324,-0.00004691,0.00011120,-0.00012766,-0.00000589,-
 0.00029230,0.00004484,-0.00000299,0.00014450,-0.00055549,-0.00009284,0
 .00028883,0.00023968,-0.00006440,0.00027603,-0.00005275,0.00136833,0.0
 0075335,-0.00581077,-0.00087451,-0.00004371,-0.00018259,0.00251800,0.0
 0227962,-0.06363842,0.04428679,-0.13795477,-0.02371076,0.01293804,-0.0
 7073155,0.02242549,-0.01848043,0.45420894,-0.15849573,0.00893004,-0.07
 050864,0.01420095,0.00203133,0.00331836,0.00344391,-0.01074387,-0.0173
 2090,-0.00008649,0.00187603,0.00307166,-0.00070259,-0.00305225,-0.0161
 3671,-0.00175470,-0.00018413,0.00016049,0.00001607,-0.00039985,-0.0002
 0416,-0.00018511,0.00099062,0.00056290,0.00040510,-0.00078241,-0.00072
 649,-0.00047299,0.00031364,0.00036302,0.00022792,-0.00018118,-0.000351
 20,0.00030235,-0.00031114,-0.00002072,0.14223494,0.00715600,-0.0376270
 0,-0.04396606,-0.02173209,0.00359213,-0.00231250,-0.00370419,0.0095748
 6,0.01445740,-0.00006509,-0.00155176,-0.00237252,-0.00029072,0.0032910
 5,0.00903294,0.00228327,0.00061018,0.00054314,-0.00033017,0.00023466,0
 .00039847,0.00084553,-0.00036022,-0.00048417,-0.00076427,-0.00022431,0
 .00063444,0.00043581,-0.00032401,-0.00055862,-0.00024585,0.00015730,0.
 00041708,-0.00046485,0.00020094,0.00010218,0.00992747,0.01388121,-0.06
 721675,-0.02756979,-0.16155660,-0.03427344,-0.00006893,0.00049790,-0.0
 0210814,0.01077120,0.01733927,0.00034484,-0.00170890,-0.00286535,-0.00
 692216,-0.00451812,0.00021988,0.00203656,0.00148298,0.00026588,-0.0001
 2616,0.00069438,0.00034049,0.00040867,-0.00156581,-0.00076740,-0.00136
 143,0.00170583,0.00091702,0.00084223,-0.00046412,-0.00026804,-0.000391
 54,0.00027979,0.00040137,-0.00055643,0.00033209,-0.00026566,0.11053353
 ,0.01797987,0.14204079,-0.06302795,0.02813454,0.11515511,0.02968638,0.
 00399108,0.01521919,-0.01356657,-0.01752741,-0.02559110,0.00162629,0.0
 0365004,0.00582460,-0.04428608,-0.01495868,-0.02881345,-0.00537072,-0.
 00981423,-0.00188929,-0.00086691,-0.00080000,-0.00059934,0.00256092,0.
 00840202,0.00451581,-0.00096333,-0.00789949,-0.00345295,-0.00226612,0.
 00070480,0.00074181,0.00097520,-0.00066539,-0.00130837,0.00115182,-0.0
 0081125,0.00031589,0.00223705,0.00605960,-0.00228020,0.09928785,-0.023
 72857,0.01057668,0.04266122,0.02533402,0.00131715,0.01036665,0.0035202
 9,-0.00505119,-0.01091077,0.00096601,0.00136578,0.00246364,0.01473283,
 -0.00236464,-0.01284187,-0.01268671,-0.01548556,-0.00521064,0.00052783
 ,-0.00014250,0.00022668,0.00079202,-0.00467367,-0.00296395,0.00214025,
 0.00056959,0.00150160,0.00041527,0.00003724,-0.00057516,-0.00018949,0.
 00007603,0.00046591,-0.00031288,0.00012606,0.00005344,-0.00800856,0.00
 787160,0.00185783,0.00281370,0.00773429,-0.03416074,0.00638617,-0.0490
 8487,0.06287645,0.00354825,0.02978301,0.01106900,-0.02376919,-0.035187
 58,0.00014627,0.00491546,0.00748920,0.06035579,0.03767224,0.00605742,-
 0.01001800,-0.01020297,0.00001022,0.00183751,0.00006370,-0.00082593,-0
 .00217079,-0.00393747,-0.00138391,0.00098276,0.00391914,-0.00023386,-0
 .00028560,0.00039466,0.00098886,0.00020892,-0.00006976,-0.00036783,0.0
 0060188,-0.00024070,-0.00006929,-0.01214025,0.00625632,0.00229388,-0.0
 6538399,-0.02200306,0.05422648,-0.01238343,0.00538235,0.00668951,0.011
 66504,0.00335907,0.00685918,-0.00423808,-0.01251405,0.01427879,-0.0013
 3432,0.00265165,0.00011810,-0.02337350,-0.00944263,0.02619358,0.003120
 38,0.00025880,-0.00036653,-0.00000518,-0.00033509,-0.00023485,-0.00101
 530,0.00145919,0.00018981,0.00081576,-0.00076912,0.00030339,-0.0005490
 0,0.00045838,0.00008066,0.00028833,-0.00025982,-0.00026538,0.00036730,
 -0.00025000,0.00018714,-0.00191815,0.00148953,0.00178948,-0.00851620,-
 0.00674301,-0.01654696,0.03620026,-0.00742498,0.00310067,0.00248872,0.
 00922499,-0.00059636,0.00408144,-0.00079656,0.00332820,-0.00844368,0.0
 0214719,0.00009247,0.00153453,-0.01362304,-0.07529754,0.07530317,-0.00
 144855,-0.02501455,0.02268593,0.00024208,-0.00035703,0.00002576,0.0002
 5075,-0.00008859,-0.00002877,-0.00014992,-0.00005236,0.00024797,0.0000
 2179,0.00001965,-0.00012930,-0.00002164,-0.00001926,0.00009617,-0.0000
 0662,0.00000004,0.00006380,-0.00089352,0.00118096,0.00146428,-0.001927
 90,-0.00010666,-0.00402305,0.01387952,0.09774702,-0.00603372,0.0044814
 9,-0.00005599,0.00514353,-0.00055488,0.00407262,0.02044561,0.00080416,
 -0.02286098,-0.00201943,-0.00009142,0.00017020,0.03173634,0.08636619,-
 0.16527247,0.00048334,0.00873387,0.00039323,-0.00026438,-0.00002066,-0
 .00075441,-0.00002073,0.00041518,0.00067808,0.00069549,-0.00062376,-0.
 00071989,-0.00015896,0.00002392,0.00051099,0.00006850,-0.00001417,-0.0
 0036819,0.00015827,-0.00005547,-0.00013720,-0.00031912,0.00015924,0.00
 073751,-0.01184412,-0.00461406,-0.01271588,-0.03887420,-0.09494512,0.1
 9602497,0.00298336,0.00032723,-0.00168304,-0.00395662,-0.00084542,-0.0
 0159916,0.00406055,0.00298760,0.00361028,-0.00209505,-0.00160216,-0.00
 129754,-0.00207382,-0.01489482,-0.00254238,-0.15765061,-0.06104143,-0.
 04030553,-0.03434153,-0.00374088,0.00491834,-0.00197066,0.00049713,0.0
 0143585,0.00055121,0.00025847,-0.00001503,-0.00044005,0.00014663,0.000
 04913,0.00014637,-0.00009541,-0.00018884,0.00014757,-0.00006198,-0.000
 04398,0.00041408,-0.00051065,-0.00058900,0.00098298,0.00077424,0.00213
 249,0.00028047,0.00009304,0.00036613,0.20092300,-0.00119716,-0.0011311
 9,0.00028528,0.00108927,0.00078806,0.00128364,0.00087761,-0.00312619,-
 0.00325462,-0.00040301,0.00036532,0.00064522,-0.02156371,-0.03121874,-
 0.00850055,-0.06446573,-0.06268072,-0.02075521,0.00312989,0.00376431,0
 .00070262,0.00038430,-0.00002124,-0.00077095,0.00021500,-0.00001184,0.
 00003496,-0.00012820,0.00040351,0.00038024,0.00010463,-0.00016330,-0.0
 0022340,0.00018262,-0.00028617,0.00007130,-0.00018045,0.00020927,0.000
 16271,-0.00043229,-0.00172997,-0.00078343,0.00007173,-0.00071125,0.000
 39827,0.07965420,0.08992174,-0.00088737,-0.00002899,0.00039240,0.00089
 898,0.00026103,0.00020728,0.00042011,-0.00174858,-0.00032009,-0.000035
 05,0.00023339,-0.00036469,-0.00094915,-0.00266799,0.00321099,-0.044402
 39,-0.02299630,-0.04504930,0.01654973,0.00334047,0.00192575,0.00141115
 ,-0.00084995,-0.00121733,-0.00023105,-0.00007151,-0.00005134,0.0001585
 4,0.00020188,0.00056724,-0.00000207,-0.00007823,-0.00027680,0.00016719
 ,-0.00012576,-0.00007251,-0.00009511,0.00004713,0.00015961,-0.00036810
 ,-0.00012606,-0.00036771,-0.00017314,0.00014867,0.00006476,0.04502368,
 0.02979477,0.05260848,0.00103700,-0.00037397,-0.00086048,-0.00190432,-
 0.00038558,-0.00094236,0.00051509,0.00230470,0.00154759,-0.00052210,-0
 .00052164,-0.00024579,0.00190196,0.00205351,-0.00410469,-0.03688004,0.
 01227834,-0.03006265,-0.00283270,-0.00207637,0.02222430,-0.00020021,0.
 00074922,0.00207200,0.00027444,-0.00022811,-0.00067543,0.00001189,0.00
 009887,0.00053779,0.00003015,-0.00010765,-0.00036024,0.00022920,-0.000
 10917,-0.00021601,0.00025505,-0.00039362,-0.00031998,0.00066791,-0.000
 27468,0.00117232,0.00054457,0.00029510,0.00027871,-0.00714511,0.001779
 93,-0.01884364,0.04538650,0.00101282,0.00029860,-0.00078620,-0.0017304
 0,-0.00005301,-0.00067153,0.00137927,-0.00023955,0.00177230,-0.0007593
 5,-0.00016418,-0.00033467,0.00717144,-0.02689196,0.02654637,0.00909482
 ,-0.04844599,0.05064942,0.00076519,0.00344785,-0.00553551,-0.00072744,
 0.00064500,0.00046489,0.00038658,-0.00029977,-0.00045956,-0.00025228,0
 .00019813,0.00004152,0.00011281,-0.00009522,-0.00007957,0.00003952,-0.
 00024054,0.00012901,0.00020435,-0.00040783,-0.00035646,0.00021881,-0.0
 0016046,0.00148390,0.00056113,-0.00282971,-0.00009551,-0.00255615,0.00
 468372,-0.00543628,-0.01611179,0.07014697,-0.00233594,0.00004621,0.000
 84995,0.00220317,0.00065130,-0.00002950,-0.00061140,-0.00053426,0.0002
 2988,0.00037514,0.00007484,-0.00006396,-0.00166840,0.01503854,-0.00434
 888,-0.02532571,0.05134458,-0.18633332,0.01000168,0.00030854,-0.028866
 83,0.00098724,0.00058976,0.00039487,-0.00033302,-0.00021747,-0.0004422
 0,0.00012037,-0.00040803,-0.00000729,-0.00011607,0.00011329,0.00004847
 ,-0.00010828,0.00021913,-0.00032570,-0.00036189,-0.00001063,0.00050473
 ,-0.00042780,-0.00016113,-0.00099206,-0.00039249,-0.00027238,-0.000251
 24,-0.01037637,0.00044662,-0.01198683,0.02682827,-0.06602464,0.2330408
 4,-0.00024534,-0.00003238,0.00012398,0.00006891,-0.00000953,-0.0001003
 4,0.00031983,-0.00001853,0.00026029,-0.00014347,-0.00006444,-0.0001853
 9,0.00012525,0.00021198,0.00026317,-0.00023574,-0.00141887,0.01979446,
 -0.03892393,0.01023073,-0.03702700,-0.01619124,0.00100226,-0.02837356,
 -0.00113993,-0.00133382,0.00148210,-0.00167169,-0.00083965,0.00053460,
 0.00023175,0.00044835,0.00074726,0.00058583,-0.00023195,0.00020814,0.0
 0000222,0.00002366,0.00000780,0.00012147,-0.00012670,-0.00028449,0.000
 13672,0.00024993,0.00016361,-0.00005746,-0.00014615,0.00103957,-0.0015
 1104,0.00076677,0.00137236,0.05498247,0.00054650,-0.00012674,-0.000350
 96,-0.00078871,-0.00006670,-0.00013101,0.00047824,0.00026884,0.0002131
 5,-0.00035364,-0.00012572,-0.00002385,-0.00038754,-0.00041261,-0.00031
 621,0.00034464,0.00429115,-0.00712674,0.01013202,-0.04099864,0.0421946
 6,-0.00462470,0.00734179,-0.00728067,-0.00056248,-0.00284998,0.0002536
 2,0.00015977,-0.00040871,0.00087042,-0.00029164,-0.00016664,-0.0000538
 3,0.00002169,-0.00006641,-0.00020322,0.00011700,-0.00009693,-0.0001815
 3,0.00012277,0.00006409,0.00001913,0.00051988,-0.00043750,-0.00040436,
 -0.00015835,0.00044035,0.00010316,0.00093749,0.00001629,-0.00059337,-0
 .01102035,0.04609392,0.00042466,0.00006264,-0.00042599,-0.00090450,-0.
 00002694,-0.00013725,0.00102148,0.00028547,0.00043259,-0.00062231,-0.0
 0004990,-0.00026582,-0.00055724,-0.00037120,-0.00039362,0.01029287,-0.
 00070271,-0.02958490,-0.02999445,0.04140873,-0.18635289,-0.02300802,-0
 .00500668,-0.01718779,0.00104347,0.00199047,0.00135485,-0.00098620,0.0
 0114575,0.00272189,-0.00002528,-0.00039349,-0.00187071,0.00059740,-0.0
 0047436,-0.00042207,0.00015271,-0.00018793,-0.00019347,0.00039959,-0.0
 0015625,0.00029442,0.00026720,-0.00038110,0.00034915,0.00070682,0.0003
 4079,0.00009989,0.00139873,-0.00044494,-0.00123879,0.04183888,-0.04684
 252,0.23773358,-0.00002598,0.00000900,-0.00001443,-0.00016524,-0.00000
 927,0.00007296,0.00048250,0.00037635,-0.00011653,-0.00033819,-0.000128
 80,-0.00004232,-0.00166842,0.00129729,0.00157477,-0.00543567,0.0200128
 2,0.00588354,-0.03305086,0.00232039,0.00195038,-0.00700400,-0.02881234
 ,-0.00115495,-0.00361787,-0.00077595,-0.00235164,-0.00312119,-0.000365
 64,-0.00067698,0.00021553,-0.00013506,-0.00010658,0.00026132,0.0001842
 7,0.00029751,0.00002130,-0.00002163,-0.00002369,-0.00000741,-0.0000830
 5,-0.00001614,0.00003938,-0.00012102,0.00009907,-0.00063764,0.00103634
 ,0.00039554,0.00033943,0.00031903,0.00025716,0.00362549,0.00465791,-0.
 00179826,0.05041391,0.00048811,0.00000465,-0.00038554,-0.00080007,-0.0
 0004254,-0.00014688,0.00063404,0.00005005,0.00028284,-0.00040678,-0.00
 005598,-0.00008611,0.00012428,-0.00025298,-0.00044915,0.01274824,-0.01
 902864,-0.00946561,0.00138858,-0.20934223,-0.00039948,-0.01706286,-0.0
 2190472,-0.00436953,-0.00015585,0.00109090,0.00034733,-0.00191303,0.00
 230312,0.00080882,0.00052877,-0.00094484,-0.00090663,0.00020610,-0.001
 22791,0.00013730,0.00014140,-0.00014346,-0.00019742,0.00033884,0.00000
 607,0.00034242,0.00014941,0.00004169,0.00001529,0.00069936,0.00039727,
 -0.00000315,-0.00001187,0.00026279,-0.00058472,0.00229865,-0.01287231,
 0.00963666,0.00037187,0.26114146,0.00002094,0.00002532,-0.00008825,-0.
 00017278,-0.00001733,-0.00024544,0.00012765,-0.00014453,0.00044497,-0.
 00002848,0.00001442,-0.00014571,0.00151813,-0.00073211,-0.00110248,0.0
 0700059,-0.01799782,-0.00205230,0.00288465,0.00343580,-0.03061186,-0.0
 0550834,-0.00861952,0.00278439,-0.00097655,-0.00034790,-0.00026515,0.0
 0015498,0.00060163,0.00195134,-0.00019243,-0.00052414,-0.00122807,0.00
 031474,0.00009880,-0.00060165,0.00003171,-0.00008706,-0.00002876,0.000
 11305,-0.00004151,0.00007422,0.00002975,0.00012463,0.00008006,0.000379
 04,-0.00020471,0.00044102,0.00047549,-0.00078461,-0.00041526,-0.001772
 33,0.01974687,-0.00495545,-0.00400567,0.00543373,0.03577228,-0.0000837
 8,-0.00006096,0.00010381,0.00015964,-0.00001938,0.00004387,-0.00011982
 ,-0.00000225,-0.00010341,0.00007685,-0.00001777,0.00003537,0.00005712,
 0.00001144,0.00002788,-0.00003418,-0.00008377,0.00007456,-0.00028369,-
 0.00020363,0.00046376,-0.00098873,0.00026215,-0.00086216,-0.00011409,-
 0.00021191,-0.00009785,0.01077657,0.00682314,-0.00550186,-0.00232141,-
 0.00048396,-0.00275163,-0.08529986,-0.05628939,0.06189855,-0.00001662,
 0.00008306,0.00002879,-0.00003705,0.00002724,-0.00011812,-0.00000956,0
 .00000042,-0.00003843,-0.00004697,0.00003397,-0.00002284,-0.00008460,0
 .00008734,-0.00007867,0.00000936,0.00002810,-0.00006631,-0.00013570,0.
 00024131,-0.00026265,0.09736270,0.00006249,-0.00004957,-0.00010329,-0.
 00032415,-0.00000577,-0.00008443,0.00031032,0.00009812,0.00016031,-0.0
 0018762,-0.00003849,-0.00004405,-0.00011624,-0.00001293,0.00007476,-0.
 00014833,-0.00015361,-0.00003318,-0.00046152,-0.00044335,-0.00000444,0
 .00246065,-0.00000935,0.00035520,-0.00069642,0.00026307,-0.00005550,-0
 .00221848,-0.00873433,0.01918872,0.00076415,-0.00026898,-0.00091734,-0
 .05602282,-0.09488240,0.06688723,0.00009508,-0.00006979,-0.00008155,0.
 00024367,-0.00004702,0.00005497,0.00005636,-0.00000184,0.00002053,0.00
 003565,0.00006654,0.00001071,0.00006474,0.00007095,-0.00001929,0.00005
 037,0.00004804,0.00010445,-0.00003064,0.00029554,0.00000832,0.06737644
 ,0.11128588,-0.00017561,0.00006741,0.00004511,0.00023382,0.00001760,-0
 .00000051,-0.00008557,-0.00003552,0.00002602,0.00006030,0.00001174,-0.
 00002286,0.00022179,0.00001846,-0.00011090,0.00000518,0.00011710,-0.00
 006682,0.00037185,-0.00015211,-0.00041615,-0.00150778,0.00095499,0.001
 43281,0.00050630,-0.00118410,-0.00116615,0.00245873,0.02256287,-0.0264
 2851,-0.00168999,-0.00086905,-0.00059777,0.06183317,0.06678882,-0.1012
 4550,-0.00003902,-0.00001100,0.00012540,-0.00022226,0.00001847,-0.0000
 1351,-0.00007590,-0.00001351,0.00001425,0.00000399,-0.00004110,0.00000
 881,0.00004695,-0.00006318,0.00013382,-0.00010695,0.00003314,-0.000029
 99,-0.00013140,-0.00000581,0.00009500,-0.07093456,-0.08814489,0.126804
 47,-0.00018735,-0.00004001,0.00018575,0.00039621,-0.00002050,0.0000820
 8,-0.00028359,-0.00004962,-0.00017633,0.00018077,-0.00000472,0.0000502
 1,0.00019157,0.00003579,-0.00003713,0.00012728,0.00009388,0.00010898,0
 .00054358,-0.00015261,0.00002774,-0.00154260,0.00150638,-0.00090500,0.
 00016059,-0.00037292,0.00048039,-0.01015479,-0.01018352,-0.02085895,-0
 .00045600,0.00138367,-0.00014303,-0.06180310,-0.05204334,-0.03924237,-
 0.00007386,0.00013829,0.00010096,-0.00022401,0.00007656,-0.00015901,-0
 .00006229,0.00000737,-0.00004446,-0.00004231,-0.00003116,-0.00003667,-
 0.00008054,0.00000523,-0.00001283,-0.00004497,0.00004950,-0.00014184,-
 0.00006076,-0.00006142,-0.00009843,-0.00511343,-0.01540278,-0.00332207
 ,0.07259850,-0.00013073,-0.00005090,0.00003522,0.00002446,-0.00001150,
 -0.00001653,0.00008228,0.00004372,0.00004223,-0.00003994,-0.00002557,-
 0.00001564,0.00009254,0.00002193,-0.00000335,0.00000739,-0.00002479,0.
 00000889,-0.00006693,-0.00046922,-0.00030979,0.00089740,0.00152170,0.0
 0222113,-0.00085859,-0.00147386,-0.00157869,-0.00182009,0.00993870,-0.
 00443089,0.00019629,-0.00177832,0.00318828,-0.05161281,-0.13176210,-0.
 07414666,0.00005453,0.00002625,0.00003078,0.00000749,0.00002815,-0.000
 03988,-0.00002314,-0.00000256,-0.00000112,0.00001006,0.00000786,-0.000
 01309,0.00000933,0.00002993,0.00000565,-0.00006710,0.00003714,0.000033
 21,-0.00009422,0.00008091,0.00000655,-0.01182710,-0.01482388,-0.003605
 38,0.06431024,0.15196107,-0.00021974,0.00002668,0.00005664,0.00021545,
 0.00001178,-0.00000744,-0.00003986,-0.00000882,0.00003671,0.00003871,-
 0.00000278,-0.00002403,0.00024037,0.00003998,-0.00008997,0.00005811,0.
 00010872,-0.00000456,0.00059450,-0.00037133,-0.00036151,-0.00047241,0.
 00191923,0.00118940,0.00014271,-0.00077716,-0.00094235,-0.02220468,-0.
 01119294,-0.02467765,0.00058974,0.00182470,-0.00091842,-0.03960138,-0.
 07541606,-0.08653323,-0.00000198,0.00000186,0.00012668,-0.00018567,0.0
 0001871,-0.00002448,-0.00008121,-0.00001987,0.00001634,0.00000649,-0.0
 0004025,-0.00001225,0.00002805,-0.00002358,0.00009974,-0.00006455,0.00
 003826,-0.00003233,-0.00006039,-0.00010280,0.00005842,0.00366271,0.006
 41588,0.00725730,0.05693830,0.09040979,0.10935330,-0.00015419,-0.00001
 482,0.00013217,0.00029415,-0.00001049,0.00005193,-0.00020376,-0.000032
 67,-0.00010998,0.00013318,-0.00000610,0.00002991,0.00016872,0.00002700
 ,-0.00004211,0.00002368,0.00001776,0.00004262,0.00024406,-0.00033878,0
 .00010532,-0.00064752,0.00167599,-0.00049341,0.00010941,-0.00066096,-0
 .00005020,-0.02332128,0.01986114,-0.00982097,0.00010665,-0.00056913,0.
 00258164,-0.13920291,0.07433014,0.04781585,-0.00005403,0.00008008,0.00
 007586,-0.00016517,0.00003328,-0.00010093,-0.00005345,0.00000146,-0.00
 002148,-0.00003193,-0.00001125,-0.00001778,-0.00003241,0.00001223,0.00
 000353,-0.00004426,0.00007175,-0.00003971,-0.00012993,0.00005275,-0.00
 003283,-0.01375244,0.00408920,0.01254903,0.00593084,0.00084883,0.00041
 675,0.17078238,0.00004340,-0.00004077,-0.00005355,-0.00019194,-0.00000
 756,-0.00004650,0.00018549,0.00005658,0.00008496,-0.00011472,-0.000022
 56,-0.00002359,-0.00008448,-0.00000896,0.00005312,-0.00004711,-0.00006
 298,-0.00000497,-0.00019807,-0.00020175,-0.00009872,0.00166848,0.00016
 840,0.00036943,-0.00055468,0.00025402,0.00007356,0.01923257,-0.0083016
 7,0.00693899,-0.00059146,-0.00055075,-0.00182322,0.07481847,-0.0897860
 0,-0.03450302,0.00005493,-0.00002530,-0.00005008,0.00014932,-0.0000105
 2,0.00001399,0.00004047,0.00000465,0.00000200,0.00002357,0.00003253,0.
 00000470,0.00002302,0.00002808,-0.00001236,0.00002659,0.00002735,0.000
 02989,-0.00000778,0.00014111,0.00000513,-0.00577455,0.00741301,0.00353
 488,0.01075571,-0.01327426,-0.01286015,-0.09945721,0.10416711,0.000050
 32,0.00000220,-0.00006724,-0.00014922,0.00000285,-0.00004326,0.0001430
 4,0.00002827,0.00008966,-0.00009053,-0.00000437,-0.00003329,-0.0000560
 2,-0.00000701,0.00000892,-0.00012903,-0.00009317,-0.00006280,-0.000397
 63,-0.00009373,0.00035875,-0.00125717,0.00100921,-0.00243218,-0.000020
 77,0.00014120,0.00041823,-0.01856857,0.01334397,0.00721614,0.00124506,
 -0.00091802,-0.00098214,0.05038917,-0.03625633,-0.05934757,0.00003188,
 -0.00003970,-0.00002530,0.00008180,-0.00002951,0.00004973,0.00002390,-
 0.00000843,0.00002416,0.00000871,0.00002771,0.00003255,0.00002125,0.00
 000869,-0.00000051,0.00007835,0.00003567,0.00010489,-0.00003177,0.0000
 9850,0.00003853,0.01449860,-0.00379331,-0.00584448,0.00720375,-0.01182
 025,-0.00456638,-0.05307536,0.03836558,0.06506360\\-0.00000008,-0.0000
 0001,0.,0.00000005,-0.00000023,-0.00000024,0.00000008,0.,0.00000006,0.
 00000015,0.00000002,0.00000004,-0.00000002,0.,0.00000009,0.,0.00000007
 ,-0.00000002,-0.00000003,0.,-0.00000002,0.00000025,-0.00000006,-0.0000
 0024,-0.00000002,-0.00000018,-0.00000003,0.00000062,-0.00000082,0.0000
 0083,-0.00000013,0.00000022,0.00000094,0.00000169,-0.00000216,0.000004
 50,-0.00000007,-0.00000002,-0.00000005,-0.00000010,-0.00000004,0.00000
 007,-0.00000002,-0.00000005,0.00000010,0.00000003,0.00000004,0.,0.,0.0
 0000003,-0.00000011,0.00000003,0.,0.00000013,0.00000002,0.00000016,-0.
 00000001,0.00000506,0.00000553,-0.00000529,-0.00000230,-0.00000605,-0.
 00000395,-0.00000520,0.00000358,0.00000321\\\@


 WOMEN HOLD UP HALF THE SKY. -- MAO TSE TUNG
 Job cpu time:       0 days  0 hours  0 minutes 52.0 seconds.
 File lengths (MBytes):  RWF=     35 Int=      0 D2E=      0 Chk=      2 Scr=      1
 Normal termination of Gaussian 09 at Tue Feb 23 12:30:43 2021.
