3
Properties=species:S:1:pos:R:3 energy=-2077.5823636079576 pbc="F F F"
O        0.95105600      -0.05232700      -0.05391500
H        0.66433800      -0.39668100      -0.94408500
H        1.94649600      -0.06958300      -0.09852100
