 Entering Gaussian System, Link 0=g09
 Initial command:
 /apps/applications/gaussian/G09.D01/2/default/g09/l1.exe "/nobackup/chmrsh/Scratch/Gau-106482.inp" -scrdir="/nobackup/chmrsh/Scratch/"
 Entering Link 1 = /apps/applications/gaussian/G09.D01/2/default/g09/l1.exe PID=    106483.
  
 Copyright (c) 1988,1990,1992,1993,1995,1998,2003,2009,2013,
            Gaussian, Inc.  All Rights Reserved.
  
 This is part of the Gaussian(R) 09 program.  It is based on
 the Gaussian(R) 03 system (copyright 2003, Gaussian, Inc.),
 the Gaussian(R) 98 system (copyright 1998, Gaussian, Inc.),
 the Gaussian(R) 94 system (copyright 1995, Gaussian, Inc.),
 the Gaussian 92(TM) system (copyright 1992, Gaussian, Inc.),
 the Gaussian 90(TM) system (copyright 1990, Gaussian, Inc.),
 the Gaussian 88(TM) system (copyright 1988, Gaussian, Inc.),
 the Gaussian 86(TM) system (copyright 1986, Carnegie Mellon
 University), and the Gaussian 82(TM) system (copyright 1983,
 Carnegie Mellon University). Gaussian is a federally registered
 trademark of Gaussian, Inc.
  
 This software contains proprietary and confidential information,
 including trade secrets, belonging to Gaussian, Inc.
  
 This software is provided under written license and may be
 used, copied, transmitted, or stored only in accord with that
 written license.
  
 The following legend is applicable only to US Government
 contracts under FAR:
  
                    RESTRICTED RIGHTS LEGEND
  
 Use, reproduction and disclosure by the US Government is
 subject to restrictions as set forth in subparagraphs (a)
 and (c) of the Commercial Computer Software - Restricted
 Rights clause in FAR 52.227-19.
  
 Gaussian, Inc.
 340 Quinnipiac St., Bldg. 40, Wallingford CT 06492
  
  
 ---------------------------------------------------------------
 Warning -- This program may not be used in any manner that
 competes with the business of Gaussian, Inc. or will provide
 assistance to any competitor of Gaussian, Inc.  The licensee
 of this program is prohibited from giving any competitor of
 Gaussian, Inc. access to this program.  By using this program,
 the user acknowledges that Gaussian, Inc. is engaged in the
 business of creating and licensing software in the field of
 computational chemistry and represents and warrants to the
 licensee that it is not a competitor of Gaussian, Inc. and that
 it will not use this program in any manner prohibited above.
 ---------------------------------------------------------------
  

 Cite this work as:
 Gaussian 09, Revision D.01,
 M. J. Frisch, G. W. Trucks, H. B. Schlegel, G. E. Scuseria, 
 M. A. Robb, J. R. Cheeseman, G. Scalmani, V. Barone, B. Mennucci, 
 G. A. Petersson, H. Nakatsuji, M. Caricato, X. Li, H. P. Hratchian, 
 A. F. Izmaylov, J. Bloino, G. Zheng, J. L. Sonnenberg, M. Hada, 
 M. Ehara, K. Toyota, R. Fukuda, J. Hasegawa, M. Ishida, T. Nakajima, 
 Y. Honda, O. Kitao, H. Nakai, T. Vreven, J. A. Montgomery, Jr., 
 J. E. Peralta, F. Ogliaro, M. Bearpark, J. J. Heyd, E. Brothers, 
 K. N. Kudin, V. N. Staroverov, T. Keith, R. Kobayashi, J. Normand, 
 K. Raghavachari, A. Rendell, J. C. Burant, S. S. Iyengar, J. Tomasi, 
 M. Cossi, N. Rega, J. M. Millam, M. Klene, J. E. Knox, J. B. Cross, 
 V. Bakken, C. Adamo, J. Jaramillo, R. Gomperts, R. E. Stratmann, 
 O. Yazyev, A. J. Austin, R. Cammi, C. Pomelli, J. W. Ochterski, 
 R. L. Martin, K. Morokuma, V. G. Zakrzewski, G. A. Voth, 
 P. Salvador, J. J. Dannenberg, S. Dapprich, A. D. Daniels, 
 O. Farkas, J. B. Foresman, J. V. Ortiz, J. Cioslowski, 
 and D. J. Fox, Gaussian, Inc., Wallingford CT, 2013.
 
 ******************************************
 Gaussian 09:  ES64L-G09RevD.01 24-Apr-2013
                 6-Jan-2021 
 ******************************************
 ----------------------------------------------------------------------
 #P b3lyp/3-21G scf=qc opt(calcall, ts, noeigentest, cartesian,maxcycle
 =100) NoSymm
 ----------------------------------------------------------------------
 1/5=1,6=100,10=4,11=1,14=-1,18=10,26=3,38=1/1,3;
 2/12=2,15=1,17=6,18=5,29=2,40=1/2;
 3/5=5,11=2,16=1,25=1,30=1,71=2,74=-5,140=1/1,2,3;
 4//1;
 5/5=2,8=3,38=5/8;
 8/6=4,10=90,11=11/1;
 11/6=1,8=1,9=11,15=111,16=1,31=1/1,2,10;
 10/6=1,31=1/2;
 6/7=2,8=2,9=2,10=2,18=1,28=1/1;
 7/7=1,10=1,25=1,30=1/1,2,3,16;
 1/5=1,6=100,10=4,11=1,14=-1,18=10,26=3/3(3);
 2/15=1,29=1/2;
 7/7=1,8=1,9=1,25=1,30=1,44=-1/16;
 99/12=1/99;
 2/15=1,29=1/2;
 3/5=5,11=2,16=1,25=1,30=1,71=2,74=-5,140=1/1,2,3;
 4/5=5,16=3,69=1/1;
 5/5=2,8=3,38=5/8;
 8/6=4,10=90,11=11/1;
 11/6=1,8=1,9=11,15=111,16=1,31=1/1,2,10;
 10/6=1,31=1/2;
 7/7=1,10=1,25=1,30=1/1,2,3,16;
 1/5=1,6=100,10=4,11=1,14=-1,18=10,26=3/3(-8);
 2/15=1,29=1/2;
 6/7=2,8=2,9=2,10=2,18=1,19=2,28=1/1;
 7/7=1,8=1,9=1,25=1,30=1,44=-1/16;
 99/12=1/99;
 Leave Link    1 at Wed Jan  6 09:29:39 2021, MaxMem=           0 cpu:         0.0
 (Enter /apps/applications/gaussian/G09.D01/2/default/g09/l101.exe)
 ------------------------------
 Gaussian input prepared by ASE
 ------------------------------
 Symbolic Z-matrix:
 Charge =  0 Multiplicity = 2
 C                    -9.3324    5.27778   2.40417 
 C                    -8.27275   6.23901   2.30714 
 H                    -8.9744    4.31565   2.81036 
 H                    -9.78776   5.07046   1.41962 
 H                    -10.14012   5.63285   3.06963 
 C                    -7.38864   7.05242   2.22736 
 H                    -6.57622   7.79769   2.16524 
 O                    -5.33983   6.79422   0.82499 
 H                    -5.85499   6.19707   0.24773 
 
 NAtoms=      9 NQM=        9 NQMF=       0 NMMI=      0 NMMIF=      0
                NMic=       0 NMicF=      0.
                    Isotopes and Nuclear Properties:
 (Nuclear quadrupole moments (NQMom) in fm**2, nuclear magnetic moments (NMagM)
  in nuclear magnetons)

  Atom         1           2           3           4           5           6           7           8           9
 IAtWgt=          12          12           1           1           1          12           1          16           1
 AtmWgt=  12.0000000  12.0000000   1.0078250   1.0078250   1.0078250  12.0000000   1.0078250  15.9949146   1.0078250
 NucSpn=           0           0           1           1           1           0           1           0           1
 AtZEff=   0.0000000   0.0000000   0.0000000   0.0000000   0.0000000   0.0000000   0.0000000   0.0000000   0.0000000
 NQMom=    0.0000000   0.0000000   0.0000000   0.0000000   0.0000000   0.0000000   0.0000000   0.0000000   0.0000000
 NMagM=    0.0000000   0.0000000   2.7928460   2.7928460   2.7928460   0.0000000   2.7928460   0.0000000   2.7928460
 AtZNuc=   6.0000000   6.0000000   1.0000000   1.0000000   1.0000000   6.0000000   1.0000000   8.0000000   1.0000000
 Leave Link  101 at Wed Jan  6 09:29:39 2021, MaxMem=    33554432 cpu:         0.2
 (Enter /apps/applications/gaussian/G09.D01/2/default/g09/l103.exe)

 GradGradGradGradGradGradGradGradGradGradGradGradGradGradGradGradGradGrad
 Berny optimization.
 Initialization pass.
 No Z-matrix variables, so optimization will use Cartesian coordinates.
 Trust Radius=3.00D-01 FncErr=1.00D-07 GrdErr=1.00D-06
 Number of steps in this run=    100 maximum allowed number of steps=    100.
 Search for a saddle point of order  1.
 GradGradGradGradGradGradGradGradGradGradGradGradGradGradGradGradGradGrad

 Leave Link  103 at Wed Jan  6 09:29:40 2021, MaxMem=    33554432 cpu:         0.0
 (Enter /apps/applications/gaussian/G09.D01/2/default/g09/l202.exe)
 ---------------------------------------------------------------------------------------------------
                            Z-MATRIX (ANGSTROMS AND DEGREES)
   CD    Cent   Atom    N1       Length/X        N2       Alpha/Y        N3        Beta/Z          J
 ---------------------------------------------------------------------------------------------------
      1      1  C        0  -9.332403          5.277785          2.404173
      2      2  C        0  -8.272753          6.239005          2.307141
      3      3  H        0  -8.974396          4.315650          2.810362
      4      4  H        0  -9.787762          5.070463          1.419617
      5      5  H        0 -10.140117          5.632846          3.069629
      6      6  C        0  -7.388640          7.052421          2.227361
      7      7  H        0  -6.576218          7.797691          2.165242
      8      8  O        0  -5.339834          6.794218          0.824988
      9      9  H        0  -5.854987          6.197070          0.247732
 ---------------------------------------------------------------------------------------------------
                         Z-Matrix orientation:                         
 ---------------------------------------------------------------------
 Center     Atomic      Atomic             Coordinates (Angstroms)
 Number     Number       Type             X           Y           Z
 ---------------------------------------------------------------------
      1          6           0       -9.332403    5.277785    2.404173
      2          6           0       -8.272753    6.239005    2.307141
      3          1           0       -8.974396    4.315650    2.810362
      4          1           0       -9.787762    5.070463    1.419617
      5          1           0      -10.140117    5.632846    3.069629
      6          6           0       -7.388640    7.052421    2.227361
      7          1           0       -6.576218    7.797691    2.165242
      8          8           0       -5.339834    6.794218    0.824988
      9          1           0       -5.854987    6.197070    0.247732
 ---------------------------------------------------------------------
                    Distance matrix (angstroms):
                    1          2          3          4          5
     1  C    0.000000
     2  C    1.433952   0.000000
     3  H    1.104021   2.108276   0.000000
     4  H    1.104393   2.109133   1.779179   0.000000
     5  H    1.105125   2.106150   1.777957   1.778473   0.000000
     6  C    2.637956   1.204021   3.216275   3.215027   3.208619
     7  H    3.742134   2.308217   4.276920   4.278755   4.266831
     8  O    4.553461   3.332724   4.826494   4.807180   5.424935
     9  H    4.193775   3.176242   4.453934   4.255500   5.161762
                    6          7          8          9
     6  C    0.000000
     7  H    1.104226   0.000000
     8  O    2.496182   2.081318   0.000000
     9  H    2.646252   2.599809   0.977340   0.000000
 Symmetry turned off by external request.
 Stoichiometry    C3H5O(2)
 Framework group  C1[X(C3H5O)]
 Deg. of freedom    21
 Full point group                 C1      NOp   1
 Rotational constants (GHZ):     25.7571658      2.7480426      2.5266585
 Leave Link  202 at Wed Jan  6 09:29:40 2021, MaxMem=    33554432 cpu:         0.0
 (Enter /apps/applications/gaussian/G09.D01/2/default/g09/l301.exe)
 Standard basis: 3-21G (6D, 7F)
 Ernie: Thresh=  0.10000D-02 Tol=  0.10000D-05 Strict=F.
    46 basis functions,    75 primitive gaussians,    46 cartesian basis functions
    16 alpha electrons       15 beta electrons
       nuclear repulsion energy        94.5847350711 Hartrees.
 IExCor=  402 DFT=T Ex+Corr=B3LYP ExCW=0 ScaHFX=  0.200000
 ScaDFX=  0.800000  0.720000  1.000000  0.810000 ScalE2=  1.000000  1.000000
 IRadAn=      0 IRanWt=     -1 IRanGd=            0 ICorTp=0 IEmpDi=  4
 NAtoms=    9 NActive=    9 NUniq=    9 SFac= 1.00D+00 NAtFMM=   60 NAOKFM=F Big=F
 Integral buffers will be    131072 words long.
 Raffenetti 2 integral format.
 Two-electron integral symmetry is turned off.
 Leave Link  301 at Wed Jan  6 09:29:40 2021, MaxMem=    33554432 cpu:         0.1
 (Enter /apps/applications/gaussian/G09.D01/2/default/g09/l302.exe)
 NPDir=0 NMtPBC=     1 NCelOv=     1 NCel=       1 NClECP=     1 NCelD=      1
         NCelK=      1 NCelE2=     1 NClLst=     1 CellRange=     0.0.
 One-electron integrals computed using PRISM.
 NBasis=    46 RedAO= T EigKep=  1.24D-03  NBF=    46
 NBsUse=    46 1.00D-06 EigRej= -1.00D+00 NBFU=    46
 Precomputing XC quadrature grid using
 IXCGrd= 4 IRadAn=           0 IRanWt=          -1 IRanGd=           0 AccXCQ= 0.00D+00.
 Generated NRdTot=       0 NPtTot=           0 NUsed=           0 NTot=          32
 NSgBfM=    46    46    46    46    46 MxSgAt=     9 MxSgA2=     9.
 Leave Link  302 at Wed Jan  6 09:29:40 2021, MaxMem=    33554432 cpu:         0.2
 (Enter /apps/applications/gaussian/G09.D01/2/default/g09/l303.exe)
 DipDrv:  MaxL=1.
 Leave Link  303 at Wed Jan  6 09:29:40 2021, MaxMem=    33554432 cpu:         0.1
 (Enter /apps/applications/gaussian/G09.D01/2/default/g09/l401.exe)
 ExpMin= 1.83D-01 ExpMax= 3.22D+02 ExpMxC= 3.22D+02 IAcc=1 IRadAn=         1 AccDes= 0.00D+00
 Harris functional with IExCor=  402 and IRadAn=       1 diagonalized for initial guess.
 HarFok:  IExCor=  402 AccDes= 0.00D+00 IRadAn=         1 IDoV= 1 UseB2=F ITyADJ=14
 ICtDFT=  3500011 ScaDFX=  1.000000  1.000000  1.000000  1.000000
 FoFCou: FMM=F IPFlag=           0 FMFlag=      100000 FMFlg1=           0
         NFxFlg=           0 DoJE=T BraDBF=F KetDBF=T FulRan=T
         wScrn=  0.000000 ICntrl=     500 IOpCl=  0 I1Cent=   200000004 NGrid=           0
         NMat0=    1 NMatS0=      1 NMatT0=    0 NMatD0=    1 NMtDS0=    0 NMtDT0=    0
 Symmetry not used in FoFCou.
 Harris En= -191.326525306400    
 JPrj=0 DoOrth=F DoCkMO=F.
 Initial guess <Sx>= 0.0000 <Sy>= 0.0000 <Sz>= 0.5000 <S**2>= 0.7500 S= 0.5000
 Leave Link  401 at Wed Jan  6 09:29:40 2021, MaxMem=    33554432 cpu:         0.2
 (Enter /apps/applications/gaussian/G09.D01/2/default/g09/l508.exe)
 Direct SCF.
 Tight linear equation convergence will be used.
 UB3LYP wavefunction.
 Quadratic Convergence SCF Method.
 Line search only if initial step raises energy.
 Two-electron integral symmetry not used.
 ReadGW:  IGet=1 IStart=         402 Next=         402 LGW=           0.
 Keep R1 and R2 ints in memory in canonical form, NReq=2054730.
 FoFCou: FMM=F IPFlag=           0 FMFlag=           0 FMFlg1=           0
         NFxFlg=           0 DoJE=F BraDBF=F KetDBF=F FulRan=T
         wScrn=  0.000000 ICntrl=     600 IOpCl=  0 I1Cent=           0 NGrid=           0
         NMat0=    1 NMatS0=   1081 NMatT0=    0 NMatD0=    1 NMtDS0=    0 NMtDT0=    0
 Symmetry not used in FoFCou.
 Iteration   1 EE= -191.221627680092                                    Grad=4.408D-01 Max rot=    5.6596 deg.
 Gradient too large for Newton-Raphson -- use scaled steepest descent instead.
 Alpha Gap=     0.269 HL deriv= 2.07D-03
  Beta Gap=     0.098 HL deriv= 8.96D-04
     ILin= 1 X=0.000D+00 Y=-1.912216276801D+02 DE= 0.00D+00 F= -4.12D-01
     ILin= 2 X=3.000D-01 Y=-1.913047833893D+02 DE=-8.32D-02 F= -1.44D-01
     ILin= 3 X=4.000D-01 Y=-1.913147661765D+02 DE=-9.31D-02 F= -5.62D-02
     ILin= 4 X=6.000D-01 Y=-1.913088840868D+02 DE=-8.73D-02 F=  1.14D-01
     An  expanding polynomial of degree  4 produced  0.4654
 Iteration   2 EE= -191.316596848280     Delta-E=       -0.094969168189 Grad=1.375D-01 Max rot=    1.6772 deg.
 Gradient too large for Newton-Raphson -- use scaled steepest descent instead.
 Alpha Gap=     0.387 HL deriv= 1.64D-03
  Beta Gap=     0.142 HL deriv= 2.61D-03
     ILin= 1 X=0.000D+00 Y=-1.913165968483D+02 DE= 0.00D+00 F= -2.99D-02
     ILin= 2 X=4.000D-01 Y=-1.913239092637D+02 DE=-7.31D-03 F= -6.68D-03
     ILin= 3 X=7.000D-01 Y=-1.913233286653D+02 DE=-6.73D-03 F=  1.05D-02
     An  expanding polynomial of degree  3 produced  0.5165
 Iteration   3 EE= -191.324296941860     Delta-E=       -0.007700093580 Grad=5.043D-02 Max rot=    1.0447 deg.
 Gradient too large for Newton-Raphson -- use scaled steepest descent instead.
 Alpha Gap=     0.355 HL deriv= 6.53D-05
  Beta Gap=     0.139 HL deriv= 1.53D-03
     ILin= 1 X=0.000D+00 Y=-1.913242969419D+02 DE= 0.00D+00 F= -7.88D-03
     ILin= 2 X=5.000D-01 Y=-1.913262146443D+02 DE=-1.92D-03 F=  1.54D-04
     Accept linear search using points  1 and  2.
     An  expanding polynomial of degree  2 produced  0.3778
 Iteration   4 EE= -191.326115529444     Delta-E=       -0.001818587583 Grad=3.026D-02 Max rot=    0.4933 deg.
 Gradient too large for Newton-Raphson -- use scaled steepest descent instead.
 Alpha Gap=     0.370 HL deriv= 5.22D-04
  Beta Gap=     0.144 HL deriv= 2.21D-03
     ILin= 1 X=0.000D+00 Y=-1.913261155294D+02 DE= 0.00D+00 F= -2.19D-03
     ILin= 2 X=4.000D-01 Y=-1.913267883963D+02 DE=-6.73D-04 F= -1.18D-03
     ILin= 3 X=8.000D-01 Y=-1.913270556082D+02 DE=-9.40D-04 F= -1.59D-04
     ILin= 4 X=1.400D+00 Y=-1.913266910720D+02 DE=-5.76D-04 F=  1.38D-03
     An  expanding polynomial of degree  4 produced  0.8624
     Minimum is close to point  3 DX=  6.24D-02 DF= -4.97D-06 DXR=  7.24D-02 DFR=  5.28D-03 which will be used.
 Iteration   5 EE= -191.327055608232     Delta-E=       -0.000940078788 Grad=1.894D-02 Max rot=    0.3052 deg.
 Gradient too large for Newton-Raphson -- use scaled steepest descent instead.
 Alpha Gap=     0.374 HL deriv= 1.74D-05
  Beta Gap=     0.148 HL deriv= 1.80D-03
     ILin= 1 X=0.000D+00 Y=-1.913270556082D+02 DE= 0.00D+00 F= -1.19D-03
     ILin= 2 X=6.000D-01 Y=-1.913271672843D+02 DE=-1.12D-04 F=  8.21D-04
     Accept linear search using points  1 and  2.
     An  expanding polynomial of degree  2 produced  0.3225
 Iteration   6 EE= -191.327265852974     Delta-E=       -0.000210244742 Grad=7.471D-03 Max rot=    0.1510 deg.
 QCNR:  CnvC1=3.07D-09 CnvC2=3.07D-08
 LinEq1:  Iter=  0 NonCon=     1 RMS=6.34D-04 Max=1.51D-02 NDo=     1
 AX will form     1 AO Fock derivatives at one time.
 LinEq1:  Iter=  1 NonCon=     1 RMS=3.03D-04 Max=3.54D-03 NDo=     1
 LinEq1:  Iter=  2 NonCon=     1 RMS=2.05D-04 Max=4.64D-03 NDo=     1
 LinEq1:  Iter=  3 NonCon=     1 RMS=7.33D-05 Max=1.14D-03 NDo=     1
 LinEq1:  Iter=  4 NonCon=     1 RMS=4.02D-05 Max=3.78D-04 NDo=     1
 LinEq1:  Iter=  5 NonCon=     1 RMS=2.26D-05 Max=2.91D-04 NDo=     1
 LinEq1:  Iter=  6 NonCon=     1 RMS=5.97D-06 Max=5.57D-05 NDo=     1
 LinEq1:  Iter=  7 NonCon=     1 RMS=2.12D-06 Max=2.44D-05 NDo=     1
 LinEq1:  Iter=  8 NonCon=     1 RMS=7.09D-07 Max=5.54D-06 NDo=     1
 LinEq1:  Iter=  9 NonCon=     1 RMS=3.72D-07 Max=2.75D-06 NDo=     1
 LinEq1:  Iter= 10 NonCon=     1 RMS=9.50D-08 Max=5.77D-07 NDo=     1
 LinEq1:  Iter= 11 NonCon=     1 RMS=2.51D-08 Max=2.46D-07 NDo=     1
 LinEq1:  Iter= 12 NonCon=     1 RMS=1.21D-08 Max=1.21D-07 NDo=     1
 LinEq1:  Iter= 13 NonCon=     1 RMS=3.27D-09 Max=2.30D-08 NDo=     1
 LinEq1:  Iter= 14 NonCon=     0 RMS=7.36D-10 Max=5.79D-09 NDo=     1
 Linear equations converged to 3.074D-09 3.074D-08 after    14 iterations.
 Angle between quadratic step and gradient=  70.32 degrees.
     ILin= 1 X=0.000D+00 Y=-1.913272658530D+02 DE= 0.00D+00 F= -2.84D-04
     ILin= 2 X=1.000D+00 Y=-1.913274072678D+02 DE=-1.41D-04 F=  1.68D-06
     Accept linear search using points  1 and  2.
     An  expanding polynomial of degree  2 produced  0.9941
     Minimum is close to point  2 DX= -5.85D-03 DF= -4.92D-09 DXR=  5.89D-03 DFR=  3.48D-05 which will be used.
 Iteration   7 EE= -191.327407267844     Delta-E=       -0.000141414870 Grad=1.797D-04 Max rot=    0.0032 deg.
 QCNR:  CnvC1=1.80D-09 CnvC2=1.80D-08
 LinEq1:  Iter=  0 NonCon=     1 RMS=8.66D-06 Max=1.37D-04 NDo=     1
 LinEq1:  Iter=  1 NonCon=     1 RMS=6.58D-06 Max=9.19D-05 NDo=     1
 LinEq1:  Iter=  2 NonCon=     1 RMS=4.08D-06 Max=8.54D-05 NDo=     1
 LinEq1:  Iter=  3 NonCon=     1 RMS=5.38D-06 Max=6.57D-05 NDo=     1
 LinEq1:  Iter=  4 NonCon=     1 RMS=2.10D-06 Max=2.22D-05 NDo=     1
 LinEq1:  Iter=  5 NonCon=     1 RMS=9.62D-07 Max=1.15D-05 NDo=     1
 LinEq1:  Iter=  6 NonCon=     1 RMS=5.17D-07 Max=4.08D-06 NDo=     1
 LinEq1:  Iter=  7 NonCon=     1 RMS=1.64D-07 Max=1.62D-06 NDo=     1
 LinEq1:  Iter=  8 NonCon=     1 RMS=5.44D-08 Max=5.90D-07 NDo=     1
 LinEq1:  Iter=  9 NonCon=     1 RMS=3.35D-08 Max=3.46D-07 NDo=     1
 LinEq1:  Iter= 10 NonCon=     1 RMS=1.05D-08 Max=7.47D-08 NDo=     1
 LinEq1:  Iter= 11 NonCon=     0 RMS=1.72D-09 Max=1.20D-08 NDo=     1
 Linear equations converged to 1.797D-09 1.797D-08 after    11 iterations.
 Angle between quadratic step and gradient=  80.69 degrees.
     ILin= 1 X=0.000D+00 Y=-1.913274072678D+02 DE= 0.00D+00 F= -9.03D-08
     ILin= 2 X=1.000D+00 Y=-1.913274073130D+02 DE=-4.52D-08 F= -3.03D-11
     Reject lnstep minimum 1.000D+00 FVal=-1.913274073130D+02 Lims=  0.00D+00  1.00D+00
     ILin= 3 X=2.000D+00 Y=-1.913274072679D+02 DE=-8.23D-11 F=  9.02D-08
     An  expanding polynomial of degree  3 produced  1.0005
     Minimum is close to point  2 DX=  4.56D-04 DF= -5.68D-14 DXR=  4.56D-04 DFR=  1.26D-06 which will be used.
 Iteration   8 EE= -191.327407313013     Delta-E=       -0.000000045169 Grad=2.515D-07 Max rot=    0.0000 deg.
 Rotation gradient small -- convergence achieved.
 SCF Done:  E(UB3LYP) =  -191.327407313     a.u. after    8 cycles
            Convg  =    0.2515D-06                    43 Fock formations.
              S**2 =  0.7526                  -V/T =  2.0085
 <Sx>= 0.0000 <Sy>= 0.0000 <Sz>= 0.5000 <S**2>= 0.7526 S= 0.5013
 <L.S>= 0.000000000000E+00
 Annihilation of the first spin contaminant:
 S**2 before annihilation     0.7526,   after     0.7500
 Leave Link  508 at Wed Jan  6 09:30:08 2021, MaxMem=    33554432 cpu:        27.3
 (Enter /apps/applications/gaussian/G09.D01/2/default/g09/l801.exe)
 DoSCS=F DFT=T ScalE2(SS,OS)=  1.000000  1.000000
 Range of M.O.s used for correlation:     1    46
 NBasis=    46 NAE=    16 NBE=    15 NFC=     0 NFV=     0
 NROrb=     46 NOA=    16 NOB=    15 NVA=    30 NVB=    31

 **** Warning!!: The largest alpha MO coefficient is  0.12846654D+02


 **** Warning!!: The largest beta MO coefficient is  0.12852041D+02

 Leave Link  801 at Wed Jan  6 09:30:08 2021, MaxMem=    33554432 cpu:         0.0
 (Enter /apps/applications/gaussian/G09.D01/2/default/g09/l1101.exe)
 Using compressed storage, NAtomX=     9.
 Will process     10 centers per pass.
 Leave Link 1101 at Wed Jan  6 09:30:08 2021, MaxMem=    33554432 cpu:         0.1
 (Enter /apps/applications/gaussian/G09.D01/2/default/g09/l1102.exe)
 Symmetrizing basis deriv contribution to polar:
 IMax=3 JMax=2 DiffMx= 0.00D+00
 Leave Link 1102 at Wed Jan  6 09:30:08 2021, MaxMem=    33554432 cpu:         0.0
 (Enter /apps/applications/gaussian/G09.D01/2/default/g09/l1110.exe)
 Forming Gx(P) for the SCF density, NAtomX=     9.
 Integral derivatives from FoFJK, PRISM(SPDF).
 Do as many integral derivatives as possible in FoFJK.
 G2DrvN: MDV=      33554256.
 G2DrvN: will do    10 centers at a time, making    1 passes.
 Calling FoFCou, ICntrl=  3107 FMM=F I1Cent=   0 AccDes= 0.00D+00.
 FoFJK:  IHMeth= 1 ICntrl=    3107 DoSepK=F KAlg= 0 I1Cent=   0 FoldK=F
 IRaf=         0 NMat=   1 IRICut=       1 DoRegI=T DoRafI=F ISym2E= 0.
 FoFCou: FMM=F IPFlag=           0 FMFlag=      100000 FMFlg1=           0
         NFxFlg=           0 DoJE=F BraDBF=F KetDBF=F FulRan=T
         wScrn=  0.000000 ICntrl=    3107 IOpCl=  1 I1Cent=           0 NGrid=           0
         NMat0=    1 NMatS0=      1 NMatT0=    0 NMatD0=    1 NMtDS0=    0 NMtDT0=    0
 Symmetry not used in FoFCou.
 End of G2Drv F.D. properties file   721 does not exist.
 End of G2Drv F.D. properties file   722 does not exist.
 End of G2Drv F.D. properties file   788 does not exist.
 Leave Link 1110 at Wed Jan  6 09:30:17 2021, MaxMem=    33554432 cpu:         9.4
 (Enter /apps/applications/gaussian/G09.D01/2/default/g09/l1002.exe)
 Minotr:  UHF open shell wavefunction.
          IDoAtm=111111111
          Direct CPHF calculation.
          Differentiating once with respect to electric field.
                with respect to dipole field.
          Differentiating once with respect to nuclear coordinates.
          Requested convergence is 1.0D-08 RMS, and 1.0D-07 maximum.
          Secondary convergence is 1.0D-12 RMS, and 1.0D-12 maximum.
          NewPWx=T KeepS1=F KeepF1=F KeepIn=T MapXYZ=F SortEE=F KeepMc=T.
          MDV=      33554246 using IRadAn=       2.
 Generate precomputed XC quadrature information.
 Keep R1 and R2 ints in memory in canonical form, NReq=2035820.
 FoFCou: FMM=F IPFlag=           0 FMFlag=           0 FMFlg1=           0
         NFxFlg=           0 DoJE=F BraDBF=F KetDBF=F FulRan=T
         wScrn=  0.000000 ICntrl=     600 IOpCl=  0 I1Cent=           0 NGrid=           0
         NMat0=    1 NMatS0=   1081 NMatT0=    0 NMatD0=    1 NMtDS0=    0 NMtDT0=    0
 Symmetry not used in FoFCou.
          Solving linear equations simultaneously, MaxMat=       0.
          There are    30 degrees of freedom in the 1st order CPHF.  IDoFFX=6 NUNeed=     3.
     27 vectors produced by pass  0 Test12= 3.15D-15 3.33D-09 XBig12= 1.12D+02 6.49D+00.
 AX will form    27 AO Fock derivatives at one time.
     27 vectors produced by pass  1 Test12= 3.15D-15 3.33D-09 XBig12= 2.25D+01 9.71D-01.
     27 vectors produced by pass  2 Test12= 3.15D-15 3.33D-09 XBig12= 1.59D-01 8.47D-02.
     27 vectors produced by pass  3 Test12= 3.15D-15 3.33D-09 XBig12= 6.00D-04 5.22D-03.
     27 vectors produced by pass  4 Test12= 3.15D-15 3.33D-09 XBig12= 1.82D-06 1.81D-04.
     23 vectors produced by pass  5 Test12= 3.15D-15 3.33D-09 XBig12= 5.58D-09 1.21D-05.
      5 vectors produced by pass  6 Test12= 3.15D-15 3.33D-09 XBig12= 1.01D-11 5.40D-07.
      2 vectors produced by pass  7 Test12= 3.15D-15 3.33D-09 XBig12= 2.06D-14 2.24D-08.
 InvSVY:  IOpt=1 It=  1 EMax= 6.22D-15
 Solved reduced A of dimension   165 with    30 vectors.
 FullF1:  Do perturbations    1 to     3.
 Isotropic polarizability for W=    0.000000       33.70 Bohr**3.
 End of Minotr F.D. properties file   721 does not exist.
 End of Minotr F.D. properties file   722 does not exist.
 End of Minotr F.D. properties file   788 does not exist.
 Leave Link 1002 at Wed Jan  6 09:30:26 2021, MaxMem=    33554432 cpu:         8.1
 (Enter /apps/applications/gaussian/G09.D01/2/default/g09/l601.exe)
 Copying SCF densities to generalized density rwf, IOpCl= 1 IROHF=0.

 **********************************************************************

            Population analysis using the SCF density.

 **********************************************************************

 Alpha  occ. eigenvalues --  -19.05140 -10.14809 -10.13098 -10.11893  -0.97466
 Alpha  occ. eigenvalues --   -0.78965  -0.71056  -0.52462  -0.46729  -0.43766
 Alpha  occ. eigenvalues --   -0.43677  -0.42132  -0.35530  -0.28658  -0.26913
 Alpha  occ. eigenvalues --   -0.26637
 Alpha virt. eigenvalues --    0.06024   0.06398   0.11799   0.13273   0.15750
 Alpha virt. eigenvalues --    0.19638   0.19831   0.26441   0.49581   0.68731
 Alpha virt. eigenvalues --    0.70043   0.70511   0.79277   0.79848   0.89728
 Alpha virt. eigenvalues --    0.90433   0.95428   0.96487   1.02506   1.02597
 Alpha virt. eigenvalues --    1.06058   1.14207   1.21017   1.39252   1.43142
 Alpha virt. eigenvalues --    1.54313   1.58848   2.02997   2.06688   2.58151
  Beta  occ. eigenvalues --  -19.02903 -10.14818 -10.12969 -10.11884  -0.91082
  Beta  occ. eigenvalues --   -0.78757  -0.70969  -0.51993  -0.46458  -0.43655
  Beta  occ. eigenvalues --   -0.43565  -0.39490  -0.27542  -0.27338  -0.25409
  Beta virt. eigenvalues --   -0.11079   0.06112   0.07157   0.12373   0.13653
  Beta virt. eigenvalues --    0.15977   0.19672   0.20045   0.26606   0.49682
  Beta virt. eigenvalues --    0.68827   0.70098   0.70964   0.79276   0.80068
  Beta virt. eigenvalues --    0.89803   0.90999   0.95595   0.96626   1.02620
  Beta virt. eigenvalues --    1.02725   1.06772   1.15311   1.21394   1.39481
  Beta virt. eigenvalues --    1.45162   1.59071   1.64642   2.03077   2.06780
  Beta virt. eigenvalues --    2.62986
          Condensed to atoms (all electrons):
               1          2          3          4          5          6
     1  C    5.366148   0.254999   0.368563   0.368523   0.368543  -0.058805
     2  C    0.254999   4.851134  -0.049432  -0.049563  -0.048845   0.994100
     3  H    0.368563  -0.049432   0.502930  -0.026248  -0.025332  -0.002237
     4  H    0.368523  -0.049563  -0.026248   0.507101  -0.025343  -0.002304
     5  H    0.368543  -0.048845  -0.025332  -0.025343   0.498731  -0.002306
     6  C   -0.058805   0.994100  -0.002237  -0.002304  -0.002306   5.089697
     7  H    0.000709  -0.018635  -0.000013  -0.000011  -0.000023   0.333220
     8  O   -0.000012  -0.004675   0.000000   0.000000   0.000000  -0.000765
     9  H    0.000051   0.003891  -0.000003  -0.000008   0.000001   0.003505
               7          8          9
     1  C    0.000709  -0.000012   0.000051
     2  C   -0.018635  -0.004675   0.003891
     3  H   -0.000013   0.000000  -0.000003
     4  H   -0.000011   0.000000  -0.000008
     5  H   -0.000023   0.000000   0.000001
     6  C    0.333220  -0.000765   0.003505
     7  H    0.381680   0.028272  -0.005035
     8  O    0.028272   8.139293   0.196995
     9  H   -0.005035   0.196995   0.459727
          Atomic-Atomic Spin Densities.
               1          2          3          4          5          6
     1  C   -0.006575  -0.005762   0.000323   0.000335   0.003331  -0.000508
     2  C   -0.005762   0.113492  -0.000585  -0.000575  -0.003299   0.007009
     3  H    0.000323  -0.000585   0.002759   0.000264  -0.000834   0.000194
     4  H    0.000335  -0.000575   0.000264   0.002679  -0.000818   0.000190
     5  H    0.003331  -0.003299  -0.000834  -0.000818   0.008365  -0.000273
     6  C   -0.000508   0.007009   0.000194   0.000190  -0.000273  -0.045614
     7  H    0.000023   0.001699   0.000002   0.000002  -0.000003   0.003032
     8  O   -0.000005  -0.003803   0.000001   0.000001   0.000000  -0.009438
     9  H   -0.000007   0.000211  -0.000001  -0.000003   0.000000   0.000365
               7          8          9
     1  C    0.000023  -0.000005  -0.000007
     2  C    0.001699  -0.003803   0.000211
     3  H    0.000002   0.000001  -0.000001
     4  H    0.000002   0.000001  -0.000003
     5  H   -0.000003   0.000000   0.000000
     6  C    0.003032  -0.009438   0.000365
     7  H   -0.002455  -0.002631   0.000452
     8  O   -0.002631   0.990276  -0.006068
     9  H    0.000452  -0.006068  -0.028574
 Mulliken charges and spin densities:
               1          2
     1  C   -0.668720  -0.008844
     2  C    0.067026   0.108387
     3  H    0.231771   0.002123
     4  H    0.227853   0.002075
     5  H    0.234574   0.006469
     6  C   -0.354106  -0.045042
     7  H    0.279836   0.000121
     8  O   -0.359109   0.968334
     9  H    0.340875  -0.033624
 Sum of Mulliken charges =   0.00000   1.00000
 Mulliken charges and spin densities with hydrogens summed into heavy atoms:
               1          2
     1  C    0.025477   0.001824
     2  C    0.067026   0.108387
     6  C   -0.074270  -0.044921
     8  O   -0.018234   0.934710
 APT charges:
               1
     1  C    0.044459
     2  C    0.071854
     3  H    0.016687
     4  H    0.014216
     5  H    0.021866
     6  C   -0.474573
     7  H    0.270465
     8  O   -0.194100
     9  H    0.229126
 Sum of APT charges =   0.00000
 APT charges with hydrogens summed into heavy atoms:
               1
     1  C    0.097228
     2  C    0.071854
     6  C   -0.204108
     8  O    0.035026
 Electronic spatial extent (au):  <R**2>=          11530.2275
 Charge=              0.0000 electrons
 Dipole moment (field-independent basis, Debye):
    X=             -1.7064    Y=             -1.4880    Z=             -0.7828  Tot=              2.3956
 Quadrupole moment (field-independent basis, Debye-Ang):
   XX=              0.8783   YY=            -41.5116   ZZ=            -25.0211
   XY=              1.6279   XZ=              1.1726   YZ=             -6.6748
 Traceless Quadrupole moment (field-independent basis, Debye-Ang):
   XX=             22.7631   YY=            -19.6268   ZZ=             -3.1363
   XY=              1.6279   XZ=              1.1726   YZ=             -6.6748
 Octapole moment (field-independent basis, Debye-Ang**2):
  XXX=            266.5605  YYY=           -605.5377  ZZZ=           -145.6795  XYY=            263.5026
  XXY=           -102.0637  XXZ=            -20.1161  XZZ=            183.8474  YZZ=           -161.1610
  YYZ=            -95.5646  XYZ=             26.6245
 Hexadecapole moment (field-independent basis, Debye-Ang**3):
 XXXX=          -5781.8185 YYYY=          -6968.2036 ZZZZ=           -669.8145 XXXY=           2572.0215
 XXXZ=            642.8029 YYYX=           4285.7650 YYYZ=          -1188.9409 ZZZX=           1164.0818
 ZZZY=           -911.5886 XXYY=          -2747.5740 XXZZ=          -1502.0503 YYZZ=          -1152.0759
 XXYZ=           -317.3122 YYXZ=            640.3997 ZZXY=           1180.0348
 N-N= 9.458473507113D+01 E-N=-6.358318831174D+02  KE= 1.897135237973D+02
  Exact polarizability:  46.713  15.613  30.214  -9.739  -0.195  24.180
 Approx polarizability:  66.635  29.107  45.663 -10.838  -0.697  28.113
                          Isotropic Fermi Contact Couplings
        Atom                 a.u.       MegaHertz       Gauss      10(-4) cm-1
     1  C(13)             -0.00307      -3.45587      -1.23314      -1.15275
     2  C(13)              0.01045      11.74455       4.19075       3.91756
     3  H(1)               0.00092       4.09487       1.46115       1.36590
     4  H(1)               0.00090       4.02564       1.43645       1.34281
     5  H(1)               0.00293      13.09858       4.67390       4.36922
     6  C(13)              0.01210      13.60302       4.85389       4.53748
     7  H(1)               0.00387      17.30166       6.17366       5.77121
     8  O(17)              0.09805     -59.43607     -21.20827     -19.82574
     9  H(1)              -0.01304     -58.28562     -20.79776     -19.44199
 --------------------------------------------------------
       Center         ----  Spin Dipole Couplings  ----
                      3XX-RR        3YY-RR        3ZZ-RR
 --------------------------------------------------------
     1   Atom        0.001913     -0.000073     -0.001840
     2   Atom       -0.012941      0.006346      0.006595
     3   Atom        0.000357      0.000775     -0.001132
     4   Atom        0.002514     -0.000755     -0.001759
     5   Atom        0.002377     -0.001352     -0.001024
     6   Atom        0.038174     -0.025603     -0.012572
     7   Atom       -0.000524      0.000208      0.000316
     8   Atom        1.254339     -1.577669      0.323330
     9   Atom       -0.003181     -0.011402      0.014583
 --------------------------------------------------------
                        XY            XZ            YZ
 --------------------------------------------------------
     1   Atom        0.001994     -0.002018      0.000604
     2   Atom       -0.040573     -0.039699      0.050314
     3   Atom        0.002294     -0.001355     -0.001271
     4   Atom        0.002129      0.000295      0.000305
     5   Atom        0.001343     -0.001635     -0.000633
     6   Atom        0.016933     -0.025290     -0.012586
     7   Atom       -0.010166     -0.016738      0.016717
     8   Atom       -0.031490     -2.307787      0.071534
     9   Atom        0.086505      0.053190      0.104694
 --------------------------------------------------------


 ---------------------------------------------------------------------------------
              Anisotropic Spin Dipole Couplings in Principal Axis System
 ---------------------------------------------------------------------------------

       Atom             a.u.   MegaHertz   Gauss  10(-4) cm-1        Axes

              Baa    -0.0034    -0.450    -0.161    -0.150  0.4594 -0.4229  0.7811
     1 C(13)  Bbb    -0.0002    -0.026    -0.009    -0.009 -0.2185  0.7986  0.5609
              Bcc     0.0035     0.476     0.170     0.159  0.8609  0.4283 -0.2744
 
              Baa    -0.0450    -6.039    -2.155    -2.014  0.7752  0.6314 -0.0193
     2 C(13)  Bbb    -0.0435    -5.842    -2.084    -1.949  0.4009 -0.4682  0.7874
              Bcc     0.0885    11.881     4.239     3.963 -0.4882  0.6182  0.6161
 
              Baa    -0.0019    -1.038    -0.370    -0.346  0.6046 -0.1439  0.7834
     3 H(1)   Bbb    -0.0017    -0.881    -0.314    -0.294 -0.4809  0.7181  0.5030
              Bcc     0.0036     1.919     0.685     0.640  0.6350  0.6809 -0.3650
 
              Baa    -0.0019    -1.035    -0.369    -0.345  0.2766 -0.6736  0.6854
     4 H(1)   Bbb    -0.0017    -0.882    -0.315    -0.294 -0.3536  0.5919  0.7243
              Bcc     0.0036     1.917     0.684     0.639  0.8936  0.4427  0.0745
 
              Baa    -0.0018    -0.985    -0.352    -0.329 -0.0747  0.8566  0.5106
     5 H(1)   Bbb    -0.0016    -0.876    -0.313    -0.292  0.4593 -0.4249  0.7801
              Bcc     0.0035     1.862     0.664     0.621  0.8851  0.2928 -0.3617
 
              Baa    -0.0333    -4.469    -1.595    -1.491 -0.0339  0.8721  0.4881
     6 C(13)  Bbb    -0.0206    -2.765    -0.987    -0.922  0.4581 -0.4205  0.7832
              Bcc     0.0539     7.234     2.581     2.413  0.8883  0.2501 -0.3853
 
              Baa    -0.0190   -10.133    -3.616    -3.380  0.4667 -0.4272  0.7744
     7 H(1)   Bbb    -0.0103    -5.506    -1.965    -1.837  0.6981  0.7155 -0.0260
              Bcc     0.0293    15.639     5.580     5.217 -0.5430  0.5528  0.6321
 
              Baa    -1.6081   116.360    41.520    38.814 -0.3958  0.7694 -0.5014
     8 O(17)  Bbb    -1.5360   111.147    39.660    37.075  0.4947  0.6386  0.5894
              Bcc     3.1441  -227.507   -81.180   -75.888  0.7737 -0.0148 -0.6334
 
              Baa    -0.1163   -62.040   -22.137   -20.694 -0.3802  0.7914 -0.4786
     9 H(1)   Bbb    -0.0482   -25.720    -9.178    -8.579  0.7729 -0.0123 -0.6344
              Bcc     0.1645    87.760    31.315    29.274  0.5079  0.6111  0.6071
 

 ---------------------------------------------------------------------------------

 No NMR shielding tensors so no spin-rotation constants.
 Leave Link  601 at Wed Jan  6 09:30:26 2021, MaxMem=    33554432 cpu:         0.1
 (Enter /apps/applications/gaussian/G09.D01/2/default/g09/l701.exe)
 Compute integral second derivatives.
 ... and contract with generalized density number  0.
 Leave Link  701 at Wed Jan  6 09:30:26 2021, MaxMem=    33554432 cpu:         0.1
 (Enter /apps/applications/gaussian/G09.D01/2/default/g09/l702.exe)
 L702 exits ... SP integral derivatives will be done elsewhere.
 Leave Link  702 at Wed Jan  6 09:30:26 2021, MaxMem=    33554432 cpu:         0.0
 (Enter /apps/applications/gaussian/G09.D01/2/default/g09/l703.exe)
 Compute integral second derivatives, UseDBF=F ICtDFT=           0.
 Integral derivatives from FoFJK, PRISM(SPDF).
 Calling FoFJK, ICntrl=    100127 FMM=F ISym2X=0 I1Cent= 0 IOpClX= 1 NMat=1 NMatS=1 NMatT=0.
 FoFJK:  IHMeth= 1 ICntrl=  100127 DoSepK=F KAlg= 0 I1Cent=   0 FoldK=F
 IRaf=         0 NMat=   1 IRICut=       1 DoRegI=T DoRafI=F ISym2E= 0.
 FoFCou: FMM=F IPFlag=           0 FMFlag=      100000 FMFlg1=         800
         NFxFlg=           0 DoJE=F BraDBF=F KetDBF=F FulRan=T
         wScrn=  0.000000 ICntrl=  100127 IOpCl=  1 I1Cent=           0 NGrid=           0
         NMat0=    1 NMatS0=      1 NMatT0=    0 NMatD0=    1 NMtDS0=    0 NMtDT0=    0
 Symmetry not used in FoFCou.
 Leave Link  703 at Wed Jan  6 09:30:34 2021, MaxMem=    33554432 cpu:         8.1
 (Enter /apps/applications/gaussian/G09.D01/2/default/g09/l716.exe)
 Dipole        =-6.71346030D-01-5.85431986D-01-3.07991591D-01
 Polarizability= 4.67129760D+01 1.56130754D+01 3.02140081D+01
                -9.73872279D+00-1.95322334D-01 2.41798871D+01
 -------------------------------------------------------------------
 Center     Atomic                   Forces (Hartrees/Bohr)
 Number     Number              X              Y              Z
 -------------------------------------------------------------------
      1        6          -0.017463132   -0.015710751    0.001710092
      2        6           0.004433899    0.003230128   -0.001719505
      3        1          -0.000607437    0.003681740   -0.001266302
      4        1           0.001897718    0.001285971    0.003366046
      5        1           0.003630960   -0.000740778   -0.002598867
      6        6           0.029203193    0.028187459    0.000011520
      7        1          -0.021742575   -0.019718266    0.000723367
      8        8           0.017084565    0.017732092    0.017202587
      9        1          -0.016437191   -0.017947595   -0.017428937
 -------------------------------------------------------------------
 Cartesian Forces:  Max     0.029203193 RMS     0.013537463
 Force constants in Cartesian coordinates: 
                1             2             3             4             5 
      1  0.528535D+00
      2  0.179112D-01  0.528337D+00
      3  0.103073D-03 -0.231524D-02  0.510724D+00
      4 -0.197428D+00 -0.122161D+00  0.106482D-01  0.860233D+00
      5 -0.121081D+00 -0.175294D+00  0.103482D-01  0.707070D+00  0.736513D+00
      6  0.116137D-01  0.115034D-01 -0.657509D-01 -0.676740D-01 -0.643394D-01
      7 -0.771275D-01  0.712104D-01 -0.310785D-01  0.762369D-02 -0.311903D-01
      8  0.714654D-01 -0.227345D+00  0.770524D-01 -0.385749D-03 -0.273288D-01
      9 -0.313565D-01  0.768334D-01 -0.800767D-01  0.272595D-02  0.213610D-02
     10 -0.856163D-01 -0.172071D-01 -0.862288D-01 -0.194615D-01 -0.101218D-01
     11 -0.175037D-01 -0.551993D-01 -0.371045D-01 -0.145243D-01 -0.105852D-01
     12 -0.858605D-01 -0.368535D-01 -0.242711D+00 -0.659245D-05 -0.202619D-02
     13 -0.171376D+00  0.582126D-01  0.104734D+00 -0.278550D-01  0.198066D-02
     14  0.576181D-01 -0.755589D-01 -0.494656D-01 -0.234691D-01  0.697220D-02
     15  0.104432D+00 -0.497916D-01 -0.134594D+00  0.205252D-02  0.405883D-02
     16 -0.453967D-03 -0.553866D-02  0.198562D-02 -0.622844D+00 -0.545641D+00
     17 -0.582813D-02  0.194015D-02  0.125083D-02 -0.550116D+00 -0.535900D+00
     18  0.137939D-02  0.336495D-03  0.699289D-02  0.475622D-01  0.480196D-01
     19  0.248809D-02 -0.257884D-02 -0.723267D-04  0.587169D-02  0.402194D-02
     20 -0.244350D-02  0.303761D-02  0.251158D-03  0.331490D-02  0.518961D-02
     21  0.129143D-03  0.445634D-03  0.495693D-02  0.105787D-02 -0.177030D-02
     22  0.137715D-02  0.225240D-03 -0.154060D-03 -0.675046D-02 -0.606594D-02
     23  0.178737D-05 -0.264190D-04 -0.105085D-03 -0.452651D-03 -0.387247D-03
     24 -0.583851D-03 -0.358596D-03  0.290300D-03  0.354771D-02  0.328635D-02
     25 -0.398016D-03 -0.736642D-04  0.631759D-04  0.611014D-03  0.102700D-02
     26 -0.140456D-03  0.108424D-03  0.879288D-04  0.723837D-03  0.819794D-03
     27  0.143332D-03  0.199969D-03  0.169136D-03  0.861504D-04  0.286856D-03
                6             7             8             9            10 
      6  0.949559D-01
      7  0.129511D-01  0.869232D-01
      8  0.849505D-02 -0.744137D-01  0.257491D+00
      9 -0.249895D-02  0.336535D-01 -0.873182D-01  0.862845D-01
     10 -0.245539D-01 -0.581389D-02 -0.152908D-02 -0.111936D-01  0.989667D-01
     11 -0.238649D-01  0.121376D-01  0.594795D-02  0.279946D-01  0.248631D-01
     12  0.756496D-02 -0.408206D-02 -0.199840D-02 -0.123223D-01  0.971260D-01
     13  0.159705D-01 -0.929003D-02  0.490867D-02  0.705459D-02  0.108353D-01
     14  0.189690D-01  0.216594D-01 -0.106424D-01 -0.194186D-01  0.435469D-02
     15 -0.149963D-02 -0.104798D-01  0.406670D-02  0.761017D-02  0.231002D-01
     16  0.504015D-01 -0.178374D-02  0.306100D-03 -0.100876D-02  0.106342D-02
     17  0.503714D-01  0.382669D-05  0.142848D-02 -0.254719D-03 -0.213296D-03
     18 -0.340415D-01 -0.553713D-03  0.380784D-04  0.976168D-03  0.991093D-03
     19  0.991085D-03 -0.534967D-03 -0.397344D-03  0.414132D-04  0.229916D-03
     20 -0.150254D-02  0.585002D-03  0.463566D-03 -0.709795D-05 -0.146848D-03
     21  0.155676D-02 -0.393144D-03 -0.292970D-03  0.192556D-03  0.720181D-03
     22  0.112646D-03 -0.916219D-04 -0.585401D-04  0.116219D-03 -0.196720D-03
     23  0.125000D-04  0.104174D-03  0.854254D-04 -0.416477D-04  0.331305D-04
     24 -0.927413D-04 -0.377104D-04  0.374864D-05 -0.844825D-04  0.869360D-04
     25  0.187387D-03  0.949005D-04  0.104238D-03 -0.328272D-04 -0.695622D-05
     26  0.355499D-03 -0.963397D-04 -0.995214D-04  0.761340D-04 -0.328354D-04
     27 -0.193866D-03  0.203607D-04 -0.463415D-04 -0.810529D-04 -0.481774D-04
               11            12            13            14            15 
     11  0.625741D-01
     12  0.422817D-01  0.268168D+00
     13 -0.450018D-02 -0.834593D-02  0.195910D+00
     14 -0.322246D-02 -0.277976D-02 -0.599253D-01  0.844982D-01
     15 -0.112622D-01 -0.199338D-01 -0.118599D+00  0.543158D-01  0.147764D+00
     16 -0.704476D-03  0.118623D-02  0.145443D-02 -0.837099D-03 -0.615713D-03
     17  0.570854D-03  0.136182D-02 -0.174918D-03 -0.148713D-02 -0.139770D-02
     18  0.140471D-02 -0.604672D-03 -0.354000D-03 -0.910358D-03  0.611009D-03
     19  0.842744D-04 -0.309005D-05  0.465195D-03  0.427078D-03  0.923242D-04
     20 -0.639009D-04  0.896690D-05 -0.462747D-03 -0.490841D-03 -0.302023D-04
     21  0.647003D-03 -0.137895D-03 -0.390410D-03 -0.590941D-03  0.132621D-03
     22  0.201522D-03 -0.593111D-04 -0.249579D-03  0.179735D-03  0.454586D-04
     23 -0.298947D-04  0.296590D-04  0.254709D-04  0.453354D-04  0.384912D-04
     24  0.143194D-05  0.165448D-04  0.149103D-03 -0.154816D-04 -0.116118D-03
     25 -0.537918D-04  0.453025D-04  0.105901D-03 -0.742240D-05 -0.280454D-04
     26  0.783242D-05 -0.242654D-04 -0.642063D-04 -0.114006D-03  0.179919D-05
     27 -0.978870D-04 -0.392906D-04 -0.218199D-03 -0.104120D-03  0.256637D-04
               16            17            18            19            20 
     16  0.807965D+00
     17  0.698071D+00  0.703766D+00
     18 -0.571614D-01 -0.609229D-01  0.596394D-01
     19 -0.188590D+00 -0.146544D+00  0.665599D-02  0.183742D+00
     20 -0.149825D+00 -0.170871D+00  0.155645D-01  0.146089D+00  0.164531D+00
     21  0.345267D-02  0.125142D-01 -0.301791D-01 -0.841968D-02 -0.114732D-01
     22  0.574030D-02  0.601350D-02 -0.968229D-03 -0.469082D-02  0.178660D-02
     23  0.367779D-02  0.130393D-02 -0.267243D-02  0.626683D-03 -0.223176D-02
     24  0.154224D-02 -0.289740D-02 -0.321323D-02  0.200179D-02 -0.215433D-02
     25 -0.255168D-02 -0.121207D-02  0.244874D-02  0.101830D-02  0.110279D-02
     26  0.491898D-03 -0.751673D-03 -0.857753D-03 -0.172910D-02  0.435938D-03
     27  0.217641D-03 -0.254740D-04 -0.180957D-03 -0.128750D-02 -0.657322D-03
               21            22            23            24            25 
     21  0.249980D-01
     22  0.453032D-02  0.134325D+00
     23 -0.543205D-03  0.162713D+00  0.177881D+00
     24 -0.133471D-02  0.153012D+00  0.188480D+00  0.168475D+00
     25 -0.686950D-03 -0.129463D+00 -0.166730D+00 -0.159718D+00  0.130590D+00
     26  0.106378D-02 -0.164995D+00 -0.176640D+00 -0.186346D+00  0.165842D+00
     27 -0.185141D-03 -0.156635D+00 -0.185198D+00 -0.163941D+00  0.157722D+00
               26            27 
     26  0.176233D+00
     27  0.185643D+00  0.164426D+00
 Leave Link  716 at Wed Jan  6 09:30:34 2021, MaxMem=    33554432 cpu:         0.1
 (Enter /apps/applications/gaussian/G09.D01/2/default/g09/l103.exe)

 GradGradGradGradGradGradGradGradGradGradGradGradGradGradGradGradGradGrad
 Berny optimization.
 Search for a saddle point.
 Step number   1 out of a maximum of  100
 All quantities printed in internal units (Hartrees-Bohrs-Radians)
 Swapping is turned off.
 Second derivative matrix not updated -- analytic derivatives used.
 ITU=  0
     Eigenvalues ---   -0.02665  -0.01830  -0.00072   0.00141   0.00992
     Eigenvalues ---    0.01617   0.01852   0.06112   0.07479   0.09402
     Eigenvalues ---    0.10895   0.10960   0.15208   0.15786   0.23942
     Eigenvalues ---    0.43180   0.68723   0.69454   0.76794   0.86389
     Eigenvalues ---    2.66602
 Eigenvectors required to have negative eigenvalues:
                          Y9        Z9        Y8        X9        Z8
   1                    0.67956  -0.49721  -0.31638  -0.24807   0.24346
                          Z7        X3        Y6        X8        Y7
   1                   -0.10693   0.09711   0.08832   0.07875   0.07545
 Eigenvalue     2 is  -1.83D-02 should be greater than     0.000000 Eigenvector:
                          X9        Z9        X8        Z8        Y9
   1                    0.65180  -0.54844  -0.41218   0.21219  -0.18608
                          X6        X5        X2        Y4        Z7
   1                    0.06632   0.06267   0.06062   0.05017   0.04474
 Eigenvalue     3 is  -7.18D-04 should be greater than     0.000000 Eigenvector:
                          X8        X9        Y7        Y8        Y9
   1                    0.36707   0.36134  -0.30267   0.29609   0.28026
                          X4        X3        Z7        Y6        X1
   1                   -0.27951  -0.26855  -0.24510  -0.22787  -0.19799
 RFO step:  Lambda0=9.927893197D-06 Lambda=-1.84003201D-02.
 Linear search not attempted -- option 19 set.
 Maximum step size (   0.300) exceeded in Quadratic search.
    -- Step size scaled by   0.331
 TrRot= -0.022260 -0.045994 -0.001617 -2.054207 -0.001510  2.051431
 Variable       Old X    -DE/DX   Delta X   Delta X   Delta X     New X
                                 (Linear)    (Quad)   (Total)
    X1      -17.63569  -0.01746   0.00000   0.01512   0.02375 -17.61193
    Y1        9.97357  -0.01571   0.00000  -0.01314  -0.00422   9.96935
    Z1        4.54323   0.00171   0.00000  -0.02066  -0.02332   4.51991
    X2      -15.63324   0.00443   0.00000   0.00605   0.01971 -15.61353
    Y2       11.79001   0.00323   0.00000   0.02469   0.02786  11.81787
    Z2        4.35986  -0.00172   0.00000   0.00323  -0.00330   4.35656
    X3      -16.95915  -0.00061   0.00000   0.03799   0.04215 -16.91700
    Y3        8.15540   0.00368   0.00000   0.00027   0.00829   8.16369
    Z3        5.31081  -0.00127   0.00000  -0.02202  -0.02275   5.28807
    X4      -18.49619   0.00190   0.00000   0.04140   0.04765 -18.44854
    Y4        9.58179   0.00129   0.00000  -0.00967  -0.00092   9.58086
    Z4        2.68269   0.00337   0.00000  -0.02788  -0.02943   2.65325
    X5      -19.16204   0.00363   0.00000   0.00608   0.01741 -19.14463
    Y5       10.64454  -0.00074   0.00000  -0.02946  -0.01460  10.62993
    Z5        5.80076  -0.00260   0.00000  -0.03167  -0.03413   5.76663
    X6      -13.96251   0.02920   0.00000  -0.00957   0.00833 -13.95418
    Y6       13.32714   0.02819   0.00000   0.04863   0.04704  13.37418
    Z6        4.20910   0.00001   0.00000   0.03543   0.02566   4.23476
    X7      -12.42725  -0.02174   0.00000  -0.03162  -0.00995 -12.43720
    Y7       14.73550  -0.01972   0.00000   0.03148   0.02552  14.76102
    Z7        4.09172   0.00072   0.00000   0.03158   0.01888   4.11060
    X8      -10.09082   0.01708   0.00000   0.05021   0.06456 -10.02626
    Y8       12.83921   0.01773   0.00000  -0.04436  -0.06051  12.77870
    Z8        1.55900   0.01720   0.00000  -0.04574  -0.05749   1.50152
    X9      -11.06432  -0.01644   0.00000  -0.22428  -0.21361 -11.27793
    Y9       11.71077  -0.01795   0.00000  -0.01455  -0.02845  11.68232
    Z9        0.46814  -0.01743   0.00000   0.13528   0.12588   0.59403
         Item               Value     Threshold  Converged?
 Maximum Force            0.029203     0.000450     NO 
 RMS     Force            0.013537     0.000300     NO 
 Maximum Displacement     0.213607     0.001800     NO 
 RMS     Displacement     0.056748     0.001200     NO 
 Predicted change in Energy=-2.450464D-03
 Lowest energy point so far.  Saving SCF results.
 GradGradGradGradGradGradGradGradGradGradGradGradGradGradGradGradGradGrad

 Leave Link  103 at Wed Jan  6 09:30:35 2021, MaxMem=    33554432 cpu:         0.0
 (Enter /apps/applications/gaussian/G09.D01/2/default/g09/l202.exe)
                          Input orientation:                          
 ---------------------------------------------------------------------
 Center     Atomic      Atomic             Coordinates (Angstroms)
 Number     Number       Type             X           Y           Z
 ---------------------------------------------------------------------
      1          6           0       -9.319833    5.275553    2.391834
      2          6           0       -8.262325    6.253746    2.305393
      3          1           0       -8.952092    4.320038    2.798324
      4          1           0       -9.762549    5.069974    1.404042
      5          1           0      -10.130903    5.625118    3.051567
      6          6           0       -7.384233    7.077312    2.240938
      7          1           0       -6.581485    7.811194    2.175233
      8          8           0       -5.305669    6.762195    0.794568
      9          1           0       -5.968024    6.182017    0.314346
 ---------------------------------------------------------------------
                    Distance matrix (angstroms):
                    1          2          3          4          5
     1  C    0.000000
     2  C    1.443142   0.000000
     3  H    1.101579   2.111395   0.000000
     4  H    1.101814   2.112918   1.778557   0.000000
     5  H    1.102396   2.107969   1.776784   1.777135   0.000000
     6  C    2.648708   1.205596   3.220469   3.222761   3.210947
     7  H    3.738308   2.295171   4.265700   4.269449   4.259725
     8  O    4.568904   3.359007   4.824476   4.806127   5.447006
     9  H    4.046265   3.038623   4.306016   4.101524   5.013190
                    6          7          8          9
     6  C    0.000000
     7  H    1.089635   0.000000
     8  O    2.551806   2.152752   0.000000
     9  H    2.553226   2.548226   1.002963   0.000000
 Symmetry turned off by external request.
 Stoichiometry    C3H5O(2)
 Framework group  C1[X(C3H5O)]
 Deg. of freedom    21
 Full point group                 C1      NOp   1
 Rotational constants (GHZ):     24.2282736      2.7401556      2.5046036
 Leave Link  202 at Wed Jan  6 09:30:35 2021, MaxMem=    33554432 cpu:         0.0
 (Enter /apps/applications/gaussian/G09.D01/2/default/g09/l301.exe)
 Standard basis: 3-21G (6D, 7F)
 Ernie: Thresh=  0.10000D-02 Tol=  0.10000D-05 Strict=F.
    46 basis functions,    75 primitive gaussians,    46 cartesian basis functions
    16 alpha electrons       15 beta electrons
       nuclear repulsion energy        94.1597359750 Hartrees.
 IExCor=  402 DFT=T Ex+Corr=B3LYP ExCW=0 ScaHFX=  0.200000
 ScaDFX=  0.800000  0.720000  1.000000  0.810000 ScalE2=  1.000000  1.000000
 IRadAn=      0 IRanWt=     -1 IRanGd=            0 ICorTp=0 IEmpDi=  4
 NAtoms=    9 NActive=    9 NUniq=    9 SFac= 1.00D+00 NAtFMM=   60 NAOKFM=F Big=F
 Integral buffers will be    131072 words long.
 Raffenetti 2 integral format.
 Two-electron integral symmetry is turned off.
 Leave Link  301 at Wed Jan  6 09:30:35 2021, MaxMem=    33554432 cpu:         0.1
 (Enter /apps/applications/gaussian/G09.D01/2/default/g09/l302.exe)
 NPDir=0 NMtPBC=     1 NCelOv=     1 NCel=       1 NClECP=     1 NCelD=      1
         NCelK=      1 NCelE2=     1 NClLst=     1 CellRange=     0.0.
 One-electron integrals computed using PRISM.
 NBasis=    46 RedAO= T EigKep=  1.26D-03  NBF=    46
 NBsUse=    46 1.00D-06 EigRej= -1.00D+00 NBFU=    46
 Precomputing XC quadrature grid using
 IXCGrd= 4 IRadAn=           0 IRanWt=          -1 IRanGd=           0 AccXCQ= 0.00D+00.
 Generated NRdTot=       0 NPtTot=           0 NUsed=           0 NTot=          32
 NSgBfM=    46    46    46    46    46 MxSgAt=     9 MxSgA2=     9.
 Leave Link  302 at Wed Jan  6 09:30:35 2021, MaxMem=    33554432 cpu:         0.2
 (Enter /apps/applications/gaussian/G09.D01/2/default/g09/l303.exe)
 DipDrv:  MaxL=1.
 Leave Link  303 at Wed Jan  6 09:30:36 2021, MaxMem=    33554432 cpu:         0.0
 (Enter /apps/applications/gaussian/G09.D01/2/default/g09/l401.exe)
 Initial guess from the checkpoint file:  "/nobackup/chmrsh/Scratch/Gau-106483.chk"
 B after Tr=    -0.041911   -0.084426    0.002765
         Rot=    0.999996    0.001376   -0.000593    0.002546 Ang=   0.34 deg.
 Guess basis will be translated and rotated to current coordinates.
 JPrj=2 DoOrth=T DoCkMO=T.
 Initial guess <Sx>= 0.0000 <Sy>= 0.0000 <Sz>= 0.5000 <S**2>= 0.7527 S= 0.5013
 Generating alternative initial guess.
 ExpMin= 1.83D-01 ExpMax= 3.22D+02 ExpMxC= 3.22D+02 IAcc=1 IRadAn=         1 AccDes= 0.00D+00
 Harris functional with IExCor=  402 and IRadAn=       1 diagonalized for initial guess.
 HarFok:  IExCor=  402 AccDes= 0.00D+00 IRadAn=         1 IDoV= 1 UseB2=F ITyADJ=14
 ICtDFT=  3500011 ScaDFX=  1.000000  1.000000  1.000000  1.000000
 FoFCou: FMM=F IPFlag=           0 FMFlag=      100000 FMFlg1=           0
         NFxFlg=           0 DoJE=T BraDBF=F KetDBF=T FulRan=T
         wScrn=  0.000000 ICntrl=     500 IOpCl=  0 I1Cent=   200000004 NGrid=           0
         NMat0=    1 NMatS0=      1 NMatT0=    0 NMatD0=    1 NMtDS0=    0 NMtDT0=    0
 Symmetry not used in FoFCou.
 Harris En= -191.326316640358    
 Leave Link  401 at Wed Jan  6 09:30:36 2021, MaxMem=    33554432 cpu:         0.3
 (Enter /apps/applications/gaussian/G09.D01/2/default/g09/l508.exe)
 Direct SCF.
 Tight linear equation convergence will be used.
 UB3LYP wavefunction.
 Quadratic Convergence SCF Method.
 Line search only if initial step raises energy.
 Two-electron integral symmetry not used.
 ReadGW:  IGet=1 IStart=         402 Next=         402 LGW=           0.
 Keep R1 and R2 ints in memory in canonical form, NReq=2054730.
 FoFCou: FMM=F IPFlag=           0 FMFlag=           0 FMFlg1=           0
         NFxFlg=           0 DoJE=F BraDBF=F KetDBF=F FulRan=T
         wScrn=  0.000000 ICntrl=     600 IOpCl=  0 I1Cent=           0 NGrid=           0
         NMat0=    1 NMatS0=   1081 NMatT0=    0 NMatD0=    1 NMtDS0=    0 NMtDT0=    0
 Symmetry not used in FoFCou.
 Iteration   1 EE= -191.324083865126                                    Grad=6.699D-02 Max rot=    1.4855 deg.
 Gradient too large for Newton-Raphson -- use scaled steepest descent instead.
 Alpha Gap=     0.532 HL deriv= 1.82D-03
  Beta Gap=     0.507 HL deriv= 7.11D-04
     ILin= 1 X=0.000D+00 Y=-1.913240838651D+02 DE= 0.00D+00 F= -5.26D-03
     ILin= 2 X=3.000D-01 Y=-1.913254519016D+02 DE=-1.37D-03 F= -3.86D-03
     ILin= 3 X=6.000D-01 Y=-1.913263994827D+02 DE=-2.32D-03 F= -2.46D-03
     ILin= 4 X=1.200D+00 Y=-1.913270312425D+02 DE=-2.95D-03 F=  3.52D-04
     Accept linear search using points  3 and  4.
     An  expanding polynomial of degree  4 produced  1.0181
 Iteration   2 EE= -191.327017811771     Delta-E=       -0.002933946645 Grad=3.443D-02 Max rot=    0.6820 deg.
 Gradient too large for Newton-Raphson -- use scaled steepest descent instead.
 Alpha Gap=     0.531 HL deriv= 1.36D-03
  Beta Gap=     0.515 HL deriv= 3.69D-04
     ILin= 1 X=0.000D+00 Y=-1.913270178118D+02 DE= 0.00D+00 F= -1.60D-03
     ILin= 2 X=6.000D-01 Y=-1.913276171467D+02 DE=-5.99D-04 F= -3.99D-04
     ILin= 3 X=1.100D+00 Y=-1.913275667337D+02 DE=-5.49D-04 F=  6.01D-04
     An  expanding polynomial of degree  3 produced  0.7996
 Iteration   3 EE= -191.327656960956     Delta-E=       -0.000639149185 Grad=2.696D-02 Max rot=    0.6069 deg.
 Gradient too large for Newton-Raphson -- use scaled steepest descent instead.
 Alpha Gap=     0.531 HL deriv= 4.93D-04
  Beta Gap=     0.507 HL deriv= 3.26D-04
     ILin= 1 X=0.000D+00 Y=-1.913276569610D+02 DE= 0.00D+00 F= -1.07D-03
     ILin= 2 X=9.000D-01 Y=-1.913280017649D+02 DE=-3.45D-04 F=  3.07D-04
     Accept linear search using points  1 and  2.
     An  expanding polynomial of degree  2 produced  0.6717
 Iteration   4 EE= -191.328031916536     Delta-E=       -0.000374955580 Grad=2.125D-02 Max rot=    0.5802 deg.
 Gradient too large for Newton-Raphson -- use scaled steepest descent instead.
 Alpha Gap=     0.531 HL deriv= 2.49D-04
  Beta Gap=     0.514 HL deriv= 1.27D-04
     ILin= 1 X=0.000D+00 Y=-1.913280319165D+02 DE= 0.00D+00 F= -6.16D-04
     ILin= 2 X=7.000D-01 Y=-1.913282930719D+02 DE=-2.61D-04 F= -1.30D-04
     Reject lnstep minimum 1.244D+00 FVal=-1.913283712130D+02 Lims=  0.00D+00  7.00D-01
     ILin= 3 X=1.500D+00 Y=-1.913281742167D+02 DE=-1.42D-04 F=  4.27D-04
     An  expanding polynomial of degree  3 produced  0.8864
 Iteration   5 EE= -191.328305166644     Delta-E=       -0.000273250108 Grad=2.072D-02 Max rot=    0.4421 deg.
 Gradient too large for Newton-Raphson -- use scaled steepest descent instead.
 Alpha Gap=     0.531 HL deriv= 2.47D-04
  Beta Gap=     0.508 HL deriv= 2.15D-04
     ILin= 1 X=0.000D+00 Y=-1.913283051666D+02 DE= 0.00D+00 F= -6.22D-04
     ILin= 2 X=8.000D-01 Y=-1.913284993784D+02 DE=-1.94D-04 F=  1.37D-04
     Accept linear search using points  1 and  2.
     An  expanding polynomial of degree  2 produced  0.6001
 Iteration   6 EE= -191.328507764106     Delta-E=       -0.000202597462 Grad=1.502D-02 Max rot=    0.4919 deg.
 Gradient too large for Newton-Raphson -- use scaled steepest descent instead.
 Alpha Gap=     0.531 HL deriv= 1.22D-04
  Beta Gap=     0.513 HL deriv= 7.55D-05
     ILin= 1 X=0.000D+00 Y=-1.913285077641D+02 DE= 0.00D+00 F= -3.01D-04
     ILin= 2 X=7.000D-01 Y=-1.913286567165D+02 DE=-1.49D-04 F= -1.24D-04
     ILin= 3 X=1.500D+00 Y=-1.913286752904D+02 DE=-1.68D-04 F=  7.80D-05
     Accept linear search using points  2 and  3.
     An  expanding polynomial of degree  3 produced  1.1651
 Iteration   7 EE= -191.328687210764     Delta-E=       -0.000179446658 Grad=1.800D-02 Max rot=    0.3824 deg.
 Gradient too large for Newton-Raphson -- use scaled steepest descent instead.
 Alpha Gap=     0.531 HL deriv= 2.16D-04
  Beta Gap=     0.509 HL deriv= 1.83D-04
     ILin= 1 X=0.000D+00 Y=-1.913286872108D+02 DE= 0.00D+00 F= -4.70D-04
     ILin= 2 X=8.000D-01 Y=-1.913288008167D+02 DE=-1.14D-04 F=  1.86D-04
     Accept linear search using points  1 and  2.
     An  expanding polynomial of degree  2 produced  0.5269
 Iteration   8 EE= -191.328821088308     Delta-E=       -0.000133877544 Grad=1.105D-02 Max rot=    0.3973 deg.
 Gradient too large for Newton-Raphson -- use scaled steepest descent instead.
 Alpha Gap=     0.531 HL deriv= 7.16D-05
  Beta Gap=     0.513 HL deriv= 4.55D-05
     ILin= 1 X=0.000D+00 Y=-1.913288210883D+02 DE= 0.00D+00 F= -1.61D-04
     ILin= 2 X=8.000D-01 Y=-1.913289195633D+02 DE=-9.85D-05 F= -8.52D-05
     ILin= 3 X=1.600D+00 Y=-1.913289574566D+02 DE=-1.36D-04 F= -9.47D-06
     Reject lnstep minimum 2.667D+00 FVal=-1.913289619769D+02 Lims=  8.00D-01  1.60D+00
     ILin= 4 X=3.100D+00 Y=-1.913288649694D+02 DE=-4.39D-05 F=  1.33D-04
     An  expanding polynomial of degree  4 produced  1.6999
     Minimum is close to point  3 DX=  9.99D-02 DF= -4.73D-07 DXR=  5.88D-02 DFR=  3.47D-03 which will be used.
 Iteration   9 EE= -191.328957456564     Delta-E=       -0.000136368256 Grad=1.584D-02 Max rot=    0.3114 deg.
 Gradient too large for Newton-Raphson -- use scaled steepest descent instead.
 Alpha Gap=     0.531 HL deriv= 1.99D-04
  Beta Gap=     0.509 HL deriv= 1.63D-04
     ILin= 1 X=0.000D+00 Y=-1.913289574566D+02 DE= 0.00D+00 F= -3.66D-04
     ILin= 2 X=9.000D-01 Y=-1.913289985178D+02 DE=-4.11D-05 F=  2.74D-04
     Accept linear search using points  1 and  2.
     An  expanding polynomial of degree  2 produced  0.5046
 Iteration  10 EE= -191.329051380322     Delta-E=       -0.000093923759 Grad=8.419D-03 Max rot=    0.3124 deg.
 QCNR:  CnvC1=3.07D-09 CnvC2=3.07D-08
 LinEq1:  Iter=  0 NonCon=     1 RMS=8.91D-04 Max=2.41D-02 NDo=     1
 AX will form     1 AO Fock derivatives at one time.
 LinEq1:  Iter=  1 NonCon=     1 RMS=1.78D-04 Max=1.88D-03 NDo=     1
 LinEq1:  Iter=  2 NonCon=     1 RMS=1.99D-04 Max=3.56D-03 NDo=     1
 LinEq1:  Iter=  3 NonCon=     1 RMS=1.95D-04 Max=2.89D-03 NDo=     1
 LinEq1:  Iter=  4 NonCon=     1 RMS=1.65D-04 Max=2.46D-03 NDo=     1
 LinEq1:  Iter=  5 NonCon=     1 RMS=5.85D-05 Max=4.45D-04 NDo=     1
 LinEq1:  Iter=  6 NonCon=     1 RMS=2.30D-05 Max=2.39D-04 NDo=     1
 LinEq1:  Iter=  7 NonCon=     1 RMS=7.97D-06 Max=1.06D-04 NDo=     1
 LinEq1:  Iter=  8 NonCon=     1 RMS=3.13D-06 Max=2.30D-05 NDo=     1
 LinEq1:  Iter=  9 NonCon=     1 RMS=1.80D-06 Max=1.35D-05 NDo=     1
 LinEq1:  Iter= 10 NonCon=     1 RMS=4.66D-07 Max=4.32D-06 NDo=     1
 LinEq1:  Iter= 11 NonCon=     1 RMS=1.15D-07 Max=9.34D-07 NDo=     1
 LinEq1:  Iter= 12 NonCon=     1 RMS=2.39D-08 Max=2.02D-07 NDo=     1
 LinEq1:  Iter= 13 NonCon=     1 RMS=4.49D-09 Max=3.98D-08 NDo=     1
 LinEq1:  Iter= 14 NonCon=     0 RMS=9.94D-10 Max=1.14D-08 NDo=     1
 Linear equations converged to 3.074D-09 3.074D-08 after    14 iterations.
 Angle between quadratic step and gradient=  66.69 degrees.
     ILin= 1 X=0.000D+00 Y=-1.913290513803D+02 DE= 0.00D+00 F= -7.66D-04
     ILin= 2 X=1.000D+00 Y=-1.913294282421D+02 DE=-3.77D-04 F=  1.76D-05
     Accept linear search using points  1 and  2.
     An  expanding polynomial of degree  2 produced  0.9780
     Minimum is close to point  2 DX= -2.20D-02 DF= -1.93D-07 DXR=  2.25D-02 DFR=  5.12D-04 which will be used.
 Iteration  11 EE= -191.329428242138     Delta-E=       -0.000376861815 Grad=5.272D-04 Max rot=    0.0110 deg.
 QCNR:  CnvC1=3.07D-09 CnvC2=3.07D-08
 LinEq1:  Iter=  0 NonCon=     1 RMS=2.40D-05 Max=3.81D-04 NDo=     1
 LinEq1:  Iter=  1 NonCon=     1 RMS=1.31D-05 Max=2.31D-04 NDo=     1
 LinEq1:  Iter=  2 NonCon=     1 RMS=1.08D-05 Max=1.69D-04 NDo=     1
 LinEq1:  Iter=  3 NonCon=     1 RMS=1.05D-05 Max=1.04D-04 NDo=     1
 LinEq1:  Iter=  4 NonCon=     1 RMS=7.07D-06 Max=9.68D-05 NDo=     1
 LinEq1:  Iter=  5 NonCon=     1 RMS=4.08D-06 Max=5.79D-05 NDo=     1
 LinEq1:  Iter=  6 NonCon=     1 RMS=1.31D-06 Max=1.21D-05 NDo=     1
 LinEq1:  Iter=  7 NonCon=     1 RMS=4.12D-07 Max=3.75D-06 NDo=     1
 LinEq1:  Iter=  8 NonCon=     1 RMS=1.18D-07 Max=1.10D-06 NDo=     1
 LinEq1:  Iter=  9 NonCon=     1 RMS=3.33D-08 Max=2.45D-07 NDo=     1
 LinEq1:  Iter= 10 NonCon=     1 RMS=1.84D-08 Max=1.40D-07 NDo=     1
 LinEq1:  Iter= 11 NonCon=     1 RMS=4.62D-09 Max=4.56D-08 NDo=     1
 LinEq1:  Iter= 12 NonCon=     0 RMS=1.09D-09 Max=7.43D-09 NDo=     1
 Linear equations converged to 3.074D-09 3.074D-08 after    12 iterations.
 Angle between quadratic step and gradient=  82.05 degrees.
     ILin= 1 X=0.000D+00 Y=-1.913294282421D+02 DE= 0.00D+00 F= -1.57D-06
     ILin= 2 X=1.000D+00 Y=-1.913294290334D+02 DE=-7.91D-07 F= -1.27D-08
     Reject lnstep minimum 1.008D+00 FVal=-1.913294290334D+02 Lims=  0.00D+00  1.00D+00
     ILin= 3 X=2.000D+00 Y=-1.913294282759D+02 DE=-3.38D-08 F=  1.52D-06
     An  expanding polynomial of degree  3 produced  1.0109
     Minimum is close to point  2 DX=  1.09D-02 DF= -9.20D-11 DXR=  1.08D-02 DFR=  1.16D-04 which will be used.
 Iteration  12 EE= -191.329429033353     Delta-E=       -0.000000791216 Grad=4.843D-06 Max rot=    0.0001 deg.
 QCNR:  CnvC1=4.84D-11 CnvC2=4.84D-10
 LinEq1:  Iter=  0 NonCon=     1 RMS=2.35D-07 Max=3.40D-06 NDo=     1
 LinEq1:  Iter=  1 NonCon=     1 RMS=1.71D-07 Max=2.87D-06 NDo=     1
 LinEq1:  Iter=  2 NonCon=     1 RMS=1.13D-07 Max=2.08D-06 NDo=     1
 LinEq1:  Iter=  3 NonCon=     1 RMS=8.31D-08 Max=1.02D-06 NDo=     1
 LinEq1:  Iter=  4 NonCon=     1 RMS=4.82D-08 Max=5.45D-07 NDo=     1
 LinEq1:  Iter=  5 NonCon=     1 RMS=2.92D-08 Max=3.28D-07 NDo=     1
 LinEq1:  Iter=  6 NonCon=     1 RMS=1.06D-08 Max=1.22D-07 NDo=     1
 LinEq1:  Iter=  7 NonCon=     1 RMS=3.11D-09 Max=2.86D-08 NDo=     1
 LinEq1:  Iter=  8 NonCon=     1 RMS=1.17D-09 Max=1.13D-08 NDo=     1
 LinEq1:  Iter=  9 NonCon=     1 RMS=7.06D-10 Max=6.04D-09 NDo=     1
 LinEq1:  Iter= 10 NonCon=     1 RMS=2.13D-10 Max=1.80D-09 NDo=     1
 LinEq1:  Iter= 11 NonCon=     0 RMS=3.24D-11 Max=3.79D-10 NDo=     1
 Linear equations converged to 4.843D-11 4.843D-10 after    11 iterations.
 Angle between quadratic step and gradient=  82.44 degrees.
     ILin= 1 X=0.000D+00 Y=-1.913294290334D+02 DE= 0.00D+00 F= -1.20D-10
     ILin= 2 X=1.000D+00 Y=-1.913294290334D+02 DE=-6.00D-11
 Iteration  13 EE= -191.329429033413     Delta-E=       -0.000000000060 Grad=7.065D-09 Max rot=    0.0000 deg.
 Rotation gradient small -- convergence achieved.
 SCF Done:  E(UB3LYP) =  -191.329429033     a.u. after   13 cycles
            Convg  =    0.7065D-08                    66 Fock formations.
              S**2 =  0.7523                  -V/T =  2.0087
 <Sx>= 0.0000 <Sy>= 0.0000 <Sz>= 0.5000 <S**2>= 0.7523 S= 0.5011
 <L.S>= 0.000000000000E+00
 Annihilation of the first spin contaminant:
 S**2 before annihilation     0.7523,   after     0.7500
 Leave Link  508 at Wed Jan  6 09:31:17 2021, MaxMem=    33554432 cpu:        41.1
 (Enter /apps/applications/gaussian/G09.D01/2/default/g09/l801.exe)
 DoSCS=F DFT=T ScalE2(SS,OS)=  1.000000  1.000000
 Range of M.O.s used for correlation:     1    46
 NBasis=    46 NAE=    16 NBE=    15 NFC=     0 NFV=     0
 NROrb=     46 NOA=    16 NOB=    15 NVA=    30 NVB=    31

 **** Warning!!: The largest alpha MO coefficient is  0.12636588D+02


 **** Warning!!: The largest beta MO coefficient is  0.12648106D+02

 Leave Link  801 at Wed Jan  6 09:31:18 2021, MaxMem=    33554432 cpu:         0.0
 (Enter /apps/applications/gaussian/G09.D01/2/default/g09/l1101.exe)
 Using compressed storage, NAtomX=     9.
 Will process     10 centers per pass.
 Leave Link 1101 at Wed Jan  6 09:31:18 2021, MaxMem=    33554432 cpu:         0.1
 (Enter /apps/applications/gaussian/G09.D01/2/default/g09/l1102.exe)
 Symmetrizing basis deriv contribution to polar:
 IMax=3 JMax=2 DiffMx= 0.00D+00
 Leave Link 1102 at Wed Jan  6 09:31:18 2021, MaxMem=    33554432 cpu:         0.1
 (Enter /apps/applications/gaussian/G09.D01/2/default/g09/l1110.exe)
 Forming Gx(P) for the SCF density, NAtomX=     9.
 Integral derivatives from FoFJK, PRISM(SPDF).
 Do as many integral derivatives as possible in FoFJK.
 G2DrvN: MDV=      33554256.
 G2DrvN: will do    10 centers at a time, making    1 passes.
 Calling FoFCou, ICntrl=  3107 FMM=F I1Cent=   0 AccDes= 0.00D+00.
 FoFJK:  IHMeth= 1 ICntrl=    3107 DoSepK=F KAlg= 0 I1Cent=   0 FoldK=F
 IRaf=         0 NMat=   1 IRICut=       1 DoRegI=T DoRafI=F ISym2E= 0.
 FoFCou: FMM=F IPFlag=           0 FMFlag=      100000 FMFlg1=           0
         NFxFlg=           0 DoJE=F BraDBF=F KetDBF=F FulRan=T
         wScrn=  0.000000 ICntrl=    3107 IOpCl=  1 I1Cent=           0 NGrid=           0
         NMat0=    1 NMatS0=      1 NMatT0=    0 NMatD0=    1 NMtDS0=    0 NMtDT0=    0
 Symmetry not used in FoFCou.
 End of G2Drv F.D. properties file   721 does not exist.
 End of G2Drv F.D. properties file   722 does not exist.
 End of G2Drv F.D. properties file   788 does not exist.
 Leave Link 1110 at Wed Jan  6 09:31:27 2021, MaxMem=    33554432 cpu:         9.3
 (Enter /apps/applications/gaussian/G09.D01/2/default/g09/l1002.exe)
 Minotr:  UHF open shell wavefunction.
          IDoAtm=111111111
          Direct CPHF calculation.
          Differentiating once with respect to electric field.
                with respect to dipole field.
          Differentiating once with respect to nuclear coordinates.
          Requested convergence is 1.0D-08 RMS, and 1.0D-07 maximum.
          Secondary convergence is 1.0D-12 RMS, and 1.0D-12 maximum.
          NewPWx=T KeepS1=F KeepF1=F KeepIn=T MapXYZ=F SortEE=F KeepMc=T.
          MDV=      33554246 using IRadAn=       2.
 Generate precomputed XC quadrature information.
 Keep R1 and R2 ints in memory in canonical form, NReq=2035820.
 FoFCou: FMM=F IPFlag=           0 FMFlag=           0 FMFlg1=           0
         NFxFlg=           0 DoJE=F BraDBF=F KetDBF=F FulRan=T
         wScrn=  0.000000 ICntrl=     600 IOpCl=  0 I1Cent=           0 NGrid=           0
         NMat0=    1 NMatS0=   1081 NMatT0=    0 NMatD0=    1 NMtDS0=    0 NMtDT0=    0
 Symmetry not used in FoFCou.
          Solving linear equations simultaneously, MaxMat=       0.
          There are    30 degrees of freedom in the 1st order CPHF.  IDoFFX=6 NUNeed=     3.
     27 vectors produced by pass  0 Test12= 3.15D-15 3.33D-09 XBig12= 1.03D+02 5.59D+00.
 AX will form    27 AO Fock derivatives at one time.
     27 vectors produced by pass  1 Test12= 3.15D-15 3.33D-09 XBig12= 2.16D+01 9.80D-01.
     27 vectors produced by pass  2 Test12= 3.15D-15 3.33D-09 XBig12= 1.55D-01 8.06D-02.
     27 vectors produced by pass  3 Test12= 3.15D-15 3.33D-09 XBig12= 5.50D-04 4.65D-03.
     27 vectors produced by pass  4 Test12= 3.15D-15 3.33D-09 XBig12= 1.68D-06 1.77D-04.
     23 vectors produced by pass  5 Test12= 3.15D-15 3.33D-09 XBig12= 4.82D-09 1.13D-05.
      5 vectors produced by pass  6 Test12= 3.15D-15 3.33D-09 XBig12= 9.80D-12 4.82D-07.
      2 vectors produced by pass  7 Test12= 3.15D-15 3.33D-09 XBig12= 1.97D-14 2.84D-08.
 InvSVY:  IOpt=1 It=  1 EMax= 5.33D-15
 Solved reduced A of dimension   165 with    30 vectors.
 FullF1:  Do perturbations    1 to     3.
 Isotropic polarizability for W=    0.000000       33.31 Bohr**3.
 End of Minotr F.D. properties file   721 does not exist.
 End of Minotr F.D. properties file   722 does not exist.
 End of Minotr F.D. properties file   788 does not exist.
 Leave Link 1002 at Wed Jan  6 09:31:35 2021, MaxMem=    33554432 cpu:         8.0
 (Enter /apps/applications/gaussian/G09.D01/2/default/g09/l701.exe)
 Compute integral second derivatives.
 ... and contract with generalized density number  0.
 Leave Link  701 at Wed Jan  6 09:31:35 2021, MaxMem=    33554432 cpu:         0.1
 (Enter /apps/applications/gaussian/G09.D01/2/default/g09/l702.exe)
 L702 exits ... SP integral derivatives will be done elsewhere.
 Leave Link  702 at Wed Jan  6 09:31:35 2021, MaxMem=    33554432 cpu:         0.0
 (Enter /apps/applications/gaussian/G09.D01/2/default/g09/l703.exe)
 Compute integral second derivatives, UseDBF=F ICtDFT=           0.
 Integral derivatives from FoFJK, PRISM(SPDF).
 Calling FoFJK, ICntrl=    100127 FMM=F ISym2X=0 I1Cent= 0 IOpClX= 1 NMat=1 NMatS=1 NMatT=0.
 FoFJK:  IHMeth= 1 ICntrl=  100127 DoSepK=F KAlg= 0 I1Cent=   0 FoldK=F
 IRaf=         0 NMat=   1 IRICut=       1 DoRegI=T DoRafI=F ISym2E= 0.
 FoFCou: FMM=F IPFlag=           0 FMFlag=      100000 FMFlg1=         800
         NFxFlg=           0 DoJE=F BraDBF=F KetDBF=F FulRan=T
         wScrn=  0.000000 ICntrl=  100127 IOpCl=  1 I1Cent=           0 NGrid=           0
         NMat0=    1 NMatS0=      1 NMatT0=    0 NMatD0=    1 NMtDS0=    0 NMtDT0=    0
 Symmetry not used in FoFCou.
 Leave Link  703 at Wed Jan  6 09:31:43 2021, MaxMem=    33554432 cpu:         8.1
 (Enter /apps/applications/gaussian/G09.D01/2/default/g09/l716.exe)
 Dipole        =-7.53621855D-01-5.76276901D-01-2.48371097D-01
 Polarizability= 4.57944286D+01 1.59362626D+01 3.04313496D+01
                -8.90646069D+00-2.28475154D-01 2.36922970D+01
 -------------------------------------------------------------------
 Center     Atomic                   Forces (Hartrees/Bohr)
 Number     Number              X              Y              Z
 -------------------------------------------------------------------
      1        6          -0.011788593   -0.010422680    0.001232720
      2        6           0.003626493    0.002573898   -0.001229696
      3        1          -0.000393239    0.002519249   -0.000887166
      4        1           0.001278244    0.000872334    0.002290907
      5        1           0.002446238   -0.000562593   -0.001770716
      6        6           0.019210649    0.018518311    0.000342350
      7        1          -0.014611136   -0.013345038    0.000240118
      8        8           0.005135727    0.004181947    0.004144073
      9        1          -0.004904384   -0.004335428   -0.004362590
 -------------------------------------------------------------------
 Cartesian Forces:  Max     0.019210649 RMS     0.007506601
 Force constants in Cartesian coordinates: 
                1             2             3             4             5 
      1  0.522430D+00
      2  0.379465D-02  0.524651D+00
      3  0.169422D-02 -0.697373D-03  0.520162D+00
      4 -0.186923D+00 -0.113029D+00  0.880462D-02  0.836200D+00
      5 -0.112449D+00 -0.170237D+00  0.881585D-02  0.694180D+00  0.739498D+00
      6  0.924085D-02  0.945959D-02 -0.667052D-01 -0.552237D-01 -0.537847D-01
      7 -0.787111D-01  0.743860D-01 -0.325948D-01  0.776236D-02 -0.307555D-01
      8  0.747986D-01 -0.229657D+00  0.787497D-01  0.904260D-04 -0.273721D-01
      9 -0.329221D-01  0.785469D-01 -0.808586D-01  0.268396D-02  0.173597D-02
     10 -0.843375D-01 -0.169810D-01 -0.866721D-01 -0.187834D-01 -0.986463D-02
     11 -0.172396D-01 -0.549408D-01 -0.382232D-01 -0.142623D-01 -0.107175D-01
     12 -0.862054D-01 -0.378981D-01 -0.249240D+00 -0.516461D-04 -0.199275D-02
     13 -0.176275D+00  0.594725D-01  0.107545D+00 -0.276477D-01  0.167951D-02
     14  0.588479D-01 -0.749611D-01 -0.495890D-01 -0.240507D-01  0.655596D-02
     15  0.107228D+00 -0.499606D-01 -0.135629D+00  0.167620D-02  0.403795D-02
     16  0.505156D-03 -0.513335D-02  0.124125D-02 -0.611804D+00 -0.543189D+00
     17 -0.510087D-02  0.193672D-02  0.718618D-03 -0.546330D+00 -0.543202D+00
     18  0.111873D-02  0.166512D-03  0.681082D-02  0.385501D-01  0.408876D-01
     19  0.250830D-02 -0.253885D-02  0.813476D-05  0.644603D-02  0.408753D-02
     20 -0.251055D-02  0.314347D-02  0.173232D-03  0.305232D-02  0.505453D-02
     21  0.185706D-03  0.463207D-03  0.509778D-02  0.426557D-03 -0.243597D-02
     22  0.120836D-02  0.644672D-04 -0.905291D-04 -0.563295D-02 -0.445040D-02
     23 -0.706240D-04 -0.486011D-04 -0.868575D-04  0.803390D-04 -0.286885D-03
     24 -0.604490D-03 -0.288730D-03  0.208464D-03  0.328429D-02  0.282002D-02
     25 -0.404818D-03 -0.358175D-04  0.642677D-04  0.382290D-03  0.761440D-03
     26 -0.705752D-04  0.113146D-03  0.139028D-03  0.269417D-03  0.707339D-03
     27  0.264348D-03  0.208663D-03  0.154142D-03 -0.150401D-03 -0.839752D-04
                6             7             8             9            10 
      6  0.962248D-01
      7  0.127853D-01  0.885468D-01
      8  0.845773D-02 -0.778060D-01  0.259375D+00
      9 -0.241283D-02  0.353750D-01 -0.888387D-01  0.868751D-01
     10 -0.244256D-01 -0.578996D-02 -0.167650D-02 -0.113960D-01  0.971254D-01
     11 -0.241443D-01  0.118226D-01  0.610757D-02  0.281167D-01  0.245939D-01
     12  0.737971D-02 -0.387995D-02 -0.210150D-02 -0.122544D-01  0.972102D-01
     13  0.155511D-01 -0.944953D-02  0.476666D-02  0.713965D-02  0.108613D-01
     14  0.189206D-01  0.218128D-01 -0.102740D-01 -0.193643D-01  0.442463D-02
     15 -0.128385D-02 -0.107219D-01  0.401620D-02  0.767025D-02  0.235453D-01
     16  0.404836D-01 -0.184905D-02  0.162999D-03 -0.971864D-03  0.875630D-03
     17  0.420946D-01 -0.304310D-04  0.139670D-02 -0.260340D-03 -0.316509D-03
     18 -0.346013D-01 -0.493069D-03  0.113417D-03  0.958779D-03  0.100974D-02
     19  0.101910D-02 -0.569580D-03 -0.449455D-03  0.139505D-04  0.220937D-03
     20 -0.137564D-02  0.583295D-03  0.452047D-03  0.222451D-04 -0.168465D-03
     21  0.182273D-02 -0.425903D-03 -0.324325D-03  0.153057D-03  0.734445D-03
     22  0.310666D-03 -0.909989D-05  0.617500D-04  0.133295D-03 -0.128002D-03
     23 -0.130092D-03  0.899265D-04  0.710024D-04 -0.495749D-04  0.396424D-04
     24 -0.161645D-03 -0.580656D-04 -0.290238D-04 -0.721332D-04  0.705813D-04
     25  0.258623D-03  0.691558D-04  0.515111D-04 -0.558868D-04 -0.443299D-04
     26  0.502117D-03 -0.102742D-03 -0.994241D-04  0.910415D-04 -0.510654D-04
     27 -0.262444D-03  0.134952D-04 -0.434855D-04 -0.592172D-04 -0.765734D-04
               11            12            13            14            15 
     11  0.623308D-01
     12  0.433379D-01  0.274632D+00
     13 -0.434661D-02 -0.821218D-02  0.200723D+00
     14 -0.319444D-02 -0.270046D-02 -0.609206D-01  0.838608D-01
     15 -0.110573D-01 -0.197555D-01 -0.121252D+00  0.543579D-01  0.148366D+00
     16 -0.808848D-03  0.115705D-02  0.142310D-02 -0.732744D-03 -0.553851D-03
     17  0.532319D-03  0.133773D-02 -0.123131D-03 -0.136768D-02 -0.141475D-02
[...]
 Translational            0.889              2.981             38.044
 Rotational               0.889              2.981             25.085
 Vibrational             43.339             13.425             14.589
 Vibration     1          0.595              1.980              5.048
 Vibration     2          0.617              1.905              2.705
 Vibration     3          0.624              1.884              2.479
 Vibration     4          0.726              1.579              1.173
 Vibration     5          0.731              1.565              1.145
 Vibration     6          0.747              1.520              1.053
 Vibration     7          0.944              1.059              0.472
                       Q            Log10(Q)             Ln(Q)
 Total Bot       0.604746D-16        -16.218427        -37.344308
 Total V=0       0.843556D+14         13.926114         32.066063
 Vib (Bot)       0.263658D-28        -28.578959        -65.805485
 Vib (Bot)    1  0.464767D+01          0.667235          1.536366
 Vib (Bot)    2  0.137603D+01          0.138627          0.319201
 Vib (Bot)    3  0.121500D+01          0.084576          0.194744
 Vib (Bot)    4  0.530142D+00         -0.275607         -0.634609
 Vib (Bot)    5  0.518382D+00         -0.285350         -0.657043
 Vib (Bot)    6  0.481488D+00         -0.317415         -0.730875
 Vib (Bot)    7  0.257542D+00         -0.589152         -1.356572
 Vib (V=0)       0.367775D+02          1.565582          3.604885
 Vib (V=0)    1  0.517449D+01          0.713868          1.643741
 Vib (V=0)    2  0.196405D+01          0.293153          0.675010
 Vib (V=0)    3  0.181386D+01          0.258603          0.595456
 Vib (V=0)    4  0.122873D+01          0.089457          0.205983
 Vib (V=0)    5  0.122022D+01          0.086439          0.199033
 Vib (V=0)    6  0.119414D+01          0.077055          0.177426
 Vib (V=0)    7  0.106243D+01          0.026300          0.060559
 Electronic      0.200000D+01          0.301030          0.693147
 Translational   0.169300D+08          7.228656         16.644596
 Rotational      0.677401D+05          4.830846         11.123434
 
                                                    Gaussian input prepared by AS
 E
                                                             IR Spectrum
 
     3      3      33 3                            2                       11  1           11                                        
     4      3      11 0                            2                       55  4           11      9    7      5      333     11     
     8      0      00 4                            2                       54  7           00      2    7      8      754     64   4 
     8      7      10 4                            6                       09  3           61      4    3      7      658     67   5 
 
     X      X      XX X                            X                       XX  X           XX      X    X      X      XXX     XX   X 
     X                                             X                                                    X      X      XXX     XX     
     X                                             X                                                    X      X      XXX     XX     
     X                                                                                                  X      X      XXX      X     
     X                                                                                                  X      X      XXX      X     
     X                                                                                                  X      X        X      X     
     X                                                                                                  X      X               X     
     X                                                                                                         X               X     
     X                                                                                                         X               X     
     X                                                                                                         X               X     
     X                                                                                                         X                     
                                                                                                               X                     
                                                                                                               X                     
                                                                                                               X                     
                                                                                                               X                     
                                                                                                               X                     
                                                                                                               X                     
                                                                                                               X                     
                                                                                                               X                     
                                                                                                               X                     
 
 -------------------------------------------------------------------
 Center     Atomic                   Forces (Hartrees/Bohr)
 Number     Number              X              Y              Z
 -------------------------------------------------------------------
      1        6          -0.000000862   -0.000001258    0.000000192
      2        6           0.000000212   -0.000000177    0.000000588
      3        1          -0.000000944    0.000001265   -0.000000651
      4        1           0.000001052    0.000000085    0.000001633
      5        1           0.000001285   -0.000000928   -0.000001631
      6        6           0.000000279   -0.000000545    0.000000922
      7        1           0.000000151   -0.000000068    0.000000638
      8        8          -0.000000909    0.000000897   -0.000001337
      9        1          -0.000000264    0.000000729   -0.000000354
 -------------------------------------------------------------------
 Cartesian Forces:  Max     0.000001633 RMS     0.000000870
 Force constants in Cartesian coordinates: 
                1             2             3             4             5 
      1  0.514048D+00
      2 -0.244982D-01  0.513029D+00
      3  0.565591D-02  0.391285D-02  0.538593D+00
      4 -0.161619D+00 -0.942660D-01  0.115116D-01  0.738473D+00
      5 -0.955346D-01 -0.162619D+00  0.127792D-01  0.663141D+00  0.779589D+00
      6  0.115459D-01  0.126400D-01 -0.695028D-01 -0.737460D-01 -0.785349D-01
      7 -0.957679D-01  0.994186D-01 -0.160961D-01  0.107017D-01 -0.302092D-01
      8  0.100514D+00 -0.250500D+00  0.325857D-01  0.235580D-02 -0.290386D-01
      9 -0.164797D-01  0.325299D-01 -0.514987D-01  0.232381D-03  0.388356D-02
     10 -0.128701D+00 -0.508920D-02 -0.120534D+00 -0.218086D-01 -0.654954D-02
     11 -0.541113D-02 -0.472112D-01 -0.751997D-02 -0.196938D-01 -0.695876D-02
     12 -0.119904D+00 -0.708930D-02 -0.223043D+00  0.319623D-02 -0.275023D-02
     13 -0.133865D+00  0.314249D-01  0.118667D+00 -0.224119D-01 -0.945626D-03
     14  0.308396D-01 -0.572635D-01 -0.420994D-01 -0.206317D-01  0.120084D-02
     15  0.117956D+00 -0.429279D-01 -0.206379D+00  0.279329D-02  0.474930D-02
     16  0.270502D-02 -0.488929D-02  0.840229D-03 -0.544138D+00 -0.529771D+00
     17 -0.326253D-02  0.157330D-02 -0.257951D-03 -0.534467D+00 -0.588695D+00
     18  0.765219D-03  0.685354D-03  0.620941D-02  0.538983D-01  0.601999D-01
     19  0.275225D-02 -0.260370D-02  0.577138D-03  0.695567D-02  0.524522D-02
     20 -0.246106D-02  0.305513D-02  0.275965D-03  0.236504D-02  0.504684D-02
     21  0.457441D-03  0.602672D-03  0.526441D-02 -0.656631D-03 -0.337197D-02
     22  0.704932D-03  0.666250D-03 -0.864403D-03 -0.657158D-02 -0.619270D-02
     23 -0.507249D-04 -0.232304D-03  0.219021D-03  0.115500D-02  0.857315D-03
     24 -0.226469D-03 -0.481584D-03  0.287493D-03  0.271655D-02  0.254323D-02
     25 -0.257642D-03 -0.163289D-03  0.243141D-03  0.418504D-03  0.816721D-03
     26 -0.135438D-03  0.168453D-03  0.104590D-03  0.414959D-04  0.617533D-03
     27  0.230206D-03  0.128030D-03  0.694121D-04  0.543105D-04  0.501974D-03
                6             7             8             9            10 
      6  0.106208D+00
      7  0.479485D-02  0.106655D+00
      8  0.407044D-02 -0.105553D+00  0.281840D+00
      9 -0.313952D-02  0.169707D-01 -0.372174D-01  0.539845D-01
     10 -0.191323D-01 -0.924047D-02 -0.296527D-03 -0.123946D-01  0.145593D+00
     11 -0.236379D-01  0.178054D-01  0.220539D-02  0.269923D-01  0.115542D-01
     12  0.726326D-02 -0.132200D-02 -0.432522D-04 -0.444468D-02  0.133609D+00
     13  0.197955D-01 -0.953373D-02  0.344619D-02  0.117831D-01  0.129526D-01
     14  0.246971D-01  0.181922D-01 -0.611406D-02 -0.260374D-01  0.999295D-03
     15 -0.109260D-02 -0.430092D-02  0.672588D-03  0.399187D-02  0.172970D-01
     16  0.551669D-01 -0.234697D-02  0.148562D-04 -0.293362D-03  0.898844D-03
     17  0.616200D-01 -0.220700D-03  0.112319D-02 -0.102862D-03 -0.370513D-03
     18 -0.429034D-01  0.224563D-03  0.973337D-04  0.109156D-02  0.535036D-03
     19  0.974795D-03 -0.647622D-03 -0.539806D-03 -0.103593D-04  0.418373D-03
     20 -0.101307D-02  0.596534D-03  0.494444D-03 -0.269978D-04 -0.259420D-03
     21  0.370127D-02 -0.176290D-03 -0.175113D-03  0.111503D-03  0.704779D-03
     22  0.382467D-03  0.156551D-03  0.243620D-04  0.252537D-03 -0.134459D-03
     23 -0.109755D-03  0.879444D-04  0.119079D-03 -0.107421D-03  0.500958D-04
     24 -0.606820D-03 -0.153541D-03 -0.121068D-04 -0.322216D-04  0.000000D+00
     25  0.217813D-03  0.234899D-04  0.339366D-04 -0.608248D-04  0.214685D-04
     26  0.268134D-03 -0.117794D-03 -0.129218D-03  0.862912D-04 -0.384140D-04
     27  0.729271D-04  0.586962D-04  0.218027D-04 -0.642666D-04 -0.847950D-04
               11            12            13            14            15 
     11  0.538152D-01
     12  0.844396D-02  0.243816D+00
     13 -0.397150D-02 -0.161573D-01  0.151426D+00
     14 -0.153112D-02 -0.136120D-03 -0.292234D-01  0.650117D-01
     15 -0.645370D-02 -0.229209D-01 -0.133063D+00  0.455145D-01  0.225989D+00
     16 -0.664333D-03  0.653535D-03  0.109347D-02 -0.586618D-03 -0.866752D-03
     17 -0.848642D-04  0.152405D-02 -0.258353D-03 -0.758170D-03 -0.152354D-02
     18  0.139636D-02 -0.477073D-03 -0.258972D-03 -0.109178D-02  0.466868D-03
     19  0.332434D-03 -0.143855D-03  0.277496D-03  0.310470D-03  0.728206D-05
     20 -0.247720D-03  0.781608D-04 -0.393130D-03 -0.457603D-03  0.112651D-04
     21  0.785416D-03 -0.202394D-03 -0.584276D-03 -0.791919D-03  0.261843D-04
     22  0.617308D-04  0.687119D-04  0.123496D-04  0.979562D-04  0.242149D-03
     23  0.256574D-04 -0.143940D-04  0.126873D-04  0.632404D-04 -0.536246D-04
     24  0.411487D-04  0.237502D-04  0.169542D-05  0.276092D-04 -0.111779D-03
     25 -0.129952D-04  0.000000D+00  0.486293D-04  0.214759D-05 -0.651744D-04
     26 -0.125119D-04 -0.128680D-04 -0.917327D-04 -0.151306D-03  0.111424D-04
     27 -0.475965D-04 -0.147950D-04 -0.183696D-03 -0.826266D-04  0.303878D-04
               16            17            18            19            20 
     16  0.759058D+00
     17  0.734177D+00  0.804944D+00
     18 -0.796756D-01 -0.905147D-01  0.644958D-01
     19 -0.221289D+00 -0.200488D+00  0.231468D-01  0.214915D+00
     20 -0.201690D+00 -0.216636D+00  0.328226D-01  0.198345D+00  0.210453D+00
     21  0.231714D-01  0.327160D-01 -0.267414D-01 -0.250611D-01 -0.303027D-01
     22  0.733023D-02  0.440622D-02 -0.166187D-02 -0.387854D-02  0.326413D-02
     23  0.171915D-02 -0.603366D-04 -0.293743D-02  0.102831D-02 -0.260275D-02
     24  0.963878D-03 -0.300695D-02 -0.145868D-02  0.100665D-02 -0.121069D-02
     25 -0.331233D-02  0.484177D-03  0.302656D-02  0.496378D-03  0.233098D-03
     26  0.169157D-02 -0.140642D-02 -0.657581D-03 -0.163040D-02  0.894712D-03
     27  0.397883D-04 -0.454002D-03 -0.683005D-03 -0.497350D-03 -0.634505D-03
               21            22            23            24            25 
     21  0.188757D-01
     22  0.254621D-02  0.140119D+00
     23  0.796609D-03  0.979277D-01  0.784452D-01
     24 -0.892254D-03  0.153518D+00  0.118530D+00  0.183533D+00
     25 -0.401533D-03 -0.137739D+00 -0.101930D+00 -0.157826D+00  0.140300D+00
     26 -0.258982D-03 -0.100256D+00 -0.766151D-01 -0.116431D+00  0.100536D+00
     27 -0.142965D-03 -0.154484D+00 -0.116323D+00 -0.180743D+00  0.154867D+00
               26            27 
     26  0.766338D-01
     27  0.116890D+00  0.181475D+00
 Leave Link  716 at Wed Jan  6 09:42:21 2021, MaxMem=    33554432 cpu:         0.1
 (Enter /apps/applications/gaussian/G09.D01/2/default/g09/l9999.exe)
 1\1\GINC-DC1S0B3B\Freq\UB3LYP\3-21G\C3H5O1(2)\CHMRSH\06-Jan-2021\0\\#P
  b3lyp/3-21G scf=qc opt(calcall, ts, noeigentest, cartesian,maxcycle=1
 00) NoSymm\\Gaussian input prepared by ASE\\0,2\C,-9.3091290483,5.2687
 838556,2.3876612933\C,-8.286169021,6.30463898,2.2498843783\H,-8.849959
 6541,4.2851659169,2.5446321939\H,-9.9382212593,5.2144313923,1.49114554
 3\H,-9.9577563332,5.4799488028,3.2465064669\C,-7.4519781291,7.17513047
 09,2.1593427505\H,-6.6954640272,7.9118390001,2.0493142235\O,-5.2977232
 259,6.6014781571,1.01237554\H,-5.8949658434,6.1579915563,0.3239634068\
 \Version=ES64L-G09RevD.01\HF=-191.3305542\S2=0.752847\S2-1=0.\S2A=0.75
 0005\RMSD=0.000e+00\RMSF=8.704e-07\ZeroPoint=0.0655363\Thermal=0.07189
 69\Dipole=-0.7219825,-0.4917153,-0.3710045\DipoleDeriv=0.0580547,0.003
 9716,0.006494,-0.0102283,0.0663228,0.0111979,0.056206,0.0143055,0.0404
 675,0.2197656,0.131847,-0.1182632,0.3383313,0.0168516,-0.1271859,-0.06
 4712,-0.035677,-0.0845773,0.0203105,0.0342654,0.0031196,0.015312,-0.07
 73757,0.0370588,-0.0168567,0.0238085,0.1137632,0.0023971,-0.0469617,-0
 .0732799,-0.0531049,0.0683689,0.006133,-0.0917165,-0.0050186,-0.019893
 1,-0.003991,-0.0242469,0.0965579,-0.0289812,0.0651131,-0.0215582,0.080
 3393,-0.0245192,0.0070637,-0.7159017,-0.0539926,0.2388951,-0.1850937,-
 0.3459408,0.0430675,0.1735438,0.0059884,-0.335105,0.26105,-0.0192424,-
 0.0331124,-0.0595389,0.2615917,0.0564593,-0.0414686,0.0317368,0.255509
 7,-0.0365348,0.0669529,0.0416452,0.1162699,-0.298064,0.1175413,0.11094
 52,0.1249302,-0.1329897,0.1948496,-0.0925933,-0.1620563,-0.1329663,0.2
 431325,-0.1227136,-0.2062804,-0.1355546,0.155761\Polar=46.1538416,14.0
 597634,30.7917598,-8.6519946,0.0471424,23.6193122\PG=C01 [X(C3H5O1)]\N
 Imag=1\\0.51404751,-0.02449818,0.51302908,0.00565591,0.00391285,0.5385
 9276,-0.16161885,-0.09426604,0.01151158,0.73847280,-0.09553464,-0.1626
 1919,0.01277918,0.66314129,0.77958878,0.01154593,0.01263997,-0.0695028
 3,-0.07374597,-0.07853494,0.10620772,-0.09576789,0.09941859,-0.0160961
 1,0.01070173,-0.03020922,0.00479485,0.10665492,0.10051414,-0.25049975,
 0.03258571,0.00235580,-0.02903859,0.00407044,-0.10555295,0.28183952,-0
 .01647968,0.03252990,-0.05149872,0.00023238,0.00388356,-0.00313952,0.0
 1697075,-0.03721741,0.05398448,-0.12870076,-0.00508920,-0.12053408,-0.
 02180862,-0.00654954,-0.01913231,-0.00924047,-0.00029653,-0.01239457,0
 .14559299,-0.00541113,-0.04721124,-0.00751997,-0.01969380,-0.00695876,
 -0.02363791,0.01780537,0.00220539,0.02699229,0.01155422,0.05381518,-0.
 11990437,-0.00708930,-0.22304297,0.00319623,-0.00275023,0.00726326,-0.
 00132200,-0.00004325,-0.00444468,0.13360949,0.00844396,0.24381581,-0.1
 3386456,0.03142485,0.11866658,-0.02241189,-0.00094563,0.01979555,-0.00
 953373,0.00344619,0.01178313,0.01295264,-0.00397150,-0.01615733,0.1514
 2559,0.03083956,-0.05726347,-0.04209940,-0.02063166,0.00120084,0.02469
 714,0.01819223,-0.00611406,-0.02603736,0.00099929,-0.00153112,-0.00013
 612,-0.02922339,0.06501165,0.11795580,-0.04292789,-0.20637897,0.002793
 29,0.00474930,-0.00109260,-0.00430092,0.00067259,0.00399187,0.01729701
 ,-0.00645370,-0.02292090,-0.13306268,0.04551446,0.22598893,0.00270502,
 -0.00488929,0.00084023,-0.54413775,-0.52977150,0.05516688,-0.00234697,
 0.00001486,-0.00029336,0.00089884,-0.00066433,0.00065353,0.00109347,-0
 .00058662,-0.00086675,0.75905821,-0.00326253,0.00157330,-0.00025795,-0
 .53446712,-0.58869477,0.06161998,-0.00022070,0.00112319,-0.00010286,-0
 .00037051,-0.00008486,0.00152405,-0.00025835,-0.00075817,-0.00152354,0
 .73417658,0.80494431,0.00076522,0.00068535,0.00620941,0.05389826,0.060
 19989,-0.04290340,0.00022456,0.00009733,0.00109156,0.00053504,0.001396
 36,-0.00047707,-0.00025897,-0.00109178,0.00046687,-0.07967564,-0.09051
 471,0.06449577,0.00275225,-0.00260370,0.00057714,0.00695567,0.00524522
 ,0.00097479,-0.00064762,-0.00053981,-0.00001036,0.00041837,0.00033243,
 -0.00014385,0.00027750,0.00031047,0.00000728,-0.22128871,-0.20048775,0
 .02314684,0.21491472,-0.00246106,0.00305513,0.00027597,0.00236504,0.00
 504684,-0.00101307,0.00059653,0.00049444,-0.00002700,-0.00025942,-0.00
 024772,0.00007816,-0.00039313,-0.00045760,0.00001127,-0.20169042,-0.21
 663624,0.03282257,0.19834523,0.21045319,0.00045744,0.00060267,0.005264
 41,-0.00065663,-0.00337197,0.00370127,-0.00017629,-0.00017511,0.000111
 50,0.00070478,0.00078542,-0.00020239,-0.00058428,-0.00079192,0.0000261
 8,0.02317145,0.03271599,-0.02674144,-0.02506115,-0.03030270,0.01887569
 ,0.00070493,0.00066625,-0.00086440,-0.00657158,-0.00619270,0.00038247,
 0.00015655,0.00002436,0.00025254,-0.00013446,0.00006173,0.00006871,0.0
 0001235,0.00009796,0.00024215,0.00733023,0.00440622,-0.00166187,-0.003
 87854,0.00326413,0.00254621,0.14011928,-0.00005072,-0.00023230,0.00021
 902,0.00115500,0.00085732,-0.00010975,0.00008794,0.00011908,-0.0001074
 2,0.00005010,0.00002566,-0.00001439,0.00001269,0.00006324,-0.00005362,
 0.00171915,-0.00006034,-0.00293743,0.00102831,-0.00260275,0.00079661,0
 .09792769,0.07844515,-0.00022647,-0.00048158,0.00028749,0.00271655,0.0
 0254323,-0.00060682,-0.00015354,-0.00001211,-0.00003222,-0.00000056,0.
 00004115,0.00002375,0.00000170,0.00002761,-0.00011178,0.00096388,-0.00
 300695,-0.00145868,0.00100665,-0.00121069,-0.00089225,0.15351812,0.118
 53038,0.18353323,-0.00025764,-0.00016329,0.00024314,0.00041850,0.00081
 672,0.00021781,0.00002349,0.00003394,-0.00006082,0.00002147,-0.0000130
 0,-0.00000042,0.00004863,0.00000215,-0.00006517,-0.00331233,0.00048418
 ,0.00302656,0.00049638,0.00023310,-0.00040153,-0.13773876,-0.10193014,
 -0.15782633,0.14030026,-0.00013544,0.00016845,0.00010459,0.00004150,0.
 00061753,0.00026813,-0.00011779,-0.00012922,0.00008629,-0.00003841,-0.
 00001251,-0.00001287,-0.00009173,-0.00015131,0.00001114,0.00169157,-0.
 00140642,-0.00065758,-0.00163040,0.00089471,-0.00025898,-0.10025563,-0
 .07661506,-0.11643104,0.10053635,0.07663381,0.00023021,0.00012803,0.00
 006941,0.00005431,0.00050197,0.00007293,0.00005870,0.00002180,-0.00006
 427,-0.00008480,-0.00004760,-0.00001480,-0.00018370,-0.00008263,0.0000
 3039,0.00003979,-0.00045400,-0.00068301,-0.00049735,-0.00063450,-0.000
 14297,-0.15448392,-0.11632339,-0.18074272,0.15486676,0.11689031,0.1814
 7502\\0.00000086,0.00000126,-0.00000019,-0.00000021,0.00000018,-0.0000
 0059,0.00000094,-0.00000126,0.00000065,-0.00000105,-0.00000009,-0.0000
 0163,-0.00000128,0.00000093,0.00000163,-0.00000028,0.00000055,-0.00000
 092,-0.00000015,0.00000007,-0.00000064,0.00000091,-0.00000090,0.000001
 34,0.00000026,-0.00000073,0.00000035\\\@


 DO NOT LET SELFISH MEN OR GREEDY INTERESTS SKIN YOUR COUNTRY OF ITS
 BEAUTY, ITS RICHES, OR ITS ROMANCE. -- THEODORE ROOSEVELT
 Job cpu time:       0 days  0 hours 11 minutes 49.5 seconds.
 File lengths (MBytes):  RWF=      9 Int=      0 D2E=      0 Chk=      1 Scr=      1
 Normal termination of Gaussian 09 at Wed Jan  6 09:42:21 2021.
