9
Properties=species:S:1:pos:R:3 energy=-5226.234262226279 pbc="F F F"
C       -1.11738116      -0.13356375      -0.93078717
C        0.30697229      -0.05218536      -0.95850297
H       -1.48782348      -0.07873197       0.11597779
H       -1.48760502      -1.08572039      -1.34742812
H       -1.59209359       0.69866086      -1.47787711
C        1.49683879       0.04631783      -0.56454079
H        1.44051667       0.97828614       1.68308550
O        0.91056502       0.17667052       1.68511825
H        1.53001048      -0.54973389       1.79495463
