9
Properties=species:S:1:pos:R:3 energy=-724.9466812057233 pbc="F F F"
C       -1.02455795      -0.04821239      -0.52561006
C        0.28659161       0.01538806       0.17503793
H       -1.13005810      -0.98035068      -1.09871035
H       -1.15013942       0.79307767      -1.22198010
H       -1.85205173      -0.00687736       0.20339560
C        1.48399738      -0.00772507      -0.34375010
H        2.40639446      -0.02848464      -0.78531058
O        0.06580402       0.10894276       1.54477296
H        0.91401973       0.15424166       2.05215470
9
Properties=species:S:1:pos:R:3 energy=-724.9466803530316 pbc="F F F"
C       -1.02455764      -0.04821251      -0.52561155
C        0.28659433       0.01538765       0.17503168
H       -1.13006357      -0.98035078      -1.09871003
H       -1.15014503       0.79307784      -1.22197954
H       -1.85203931      -0.00687649       0.20340865
C        1.48400148      -0.00772528      -0.34375216
H        2.40640146      -0.02848450      -0.78530669
O        0.06579849       0.10894230       1.54476552
H        0.91400979       0.15424177       2.05215412
9
Properties=species:S:1:pos:R:3 energy=-724.9466794973745 pbc="F F F"
C       -1.02455732      -0.04821264      -0.52561305
C        0.28659705       0.01538724       0.17502542
H       -1.13006905      -0.98035088      -1.09870972
H       -1.15015066       0.79307800      -1.22197897
H       -1.85202688      -0.00687562       0.20342172
C        1.48400559      -0.00772548      -0.34375423
H        2.40640847      -0.02848435      -0.78530279
O        0.06579296       0.10894185       1.54475807
H        0.91399984       0.15424188       2.05215355
9
Properties=species:S:1:pos:R:3 energy=-724.9466786387503 pbc="F F F"
C       -1.02455701      -0.04821276      -0.52561455
C        0.28659978       0.01538683       0.17501914
H       -1.13007454      -0.98035097      -1.09870940
H       -1.15015629       0.79307816      -1.22197841
H       -1.85201442      -0.00687475       0.20343482
C        1.48400971      -0.00772569      -0.34375630
H        2.40641550      -0.02848420      -0.78529887
O        0.06578741       0.10894139       1.54475060
H        0.91398987       0.15424199       2.05215297
9
Properties=species:S:1:pos:R:3 energy=-724.9466777771386 pbc="F F F"
C       -1.02455670      -0.04821289      -0.52561606
C        0.28660251       0.01538642       0.17501286
H       -1.13008005      -0.98035107      -1.09870909
H       -1.15016194       0.79307833      -1.22197784
H       -1.85200194      -0.00687388       0.20344793
C        1.48401384      -0.00772589      -0.34375837
H        2.40642254      -0.02848405      -0.78529495
O        0.06578185       0.10894094       1.54474312
H        0.91397988       0.15424210       2.05215239
9
Properties=species:S:1:pos:R:3 energy=-724.9466769125253 pbc="F F F"
C       -1.02455638      -0.04821301      -0.52561757
C        0.28660525       0.01538600       0.17500656
H       -1.13008556      -0.98035117      -1.09870877
H       -1.15016759       0.79307849      -1.22197727
H       -1.85198944      -0.00687300       0.20346107
C        1.48401797      -0.00772610      -0.34376045
H        2.40642959      -0.02848390      -0.78529102
O        0.06577629       0.10894048       1.54473562
H        0.91396988       0.15424221       2.05215181
9
Properties=species:S:1:pos:R:3 energy=-724.946676044904 pbc="F F F"
C       -1.02455607      -0.04821313      -0.52561908
C        0.28660799       0.01538559       0.17500026
H       -1.13009108      -0.98035126      -1.09870845
H       -1.15017326       0.79307865      -1.22197670
H       -1.85197692      -0.00687212       0.20347423
C        1.48402211      -0.00772631      -0.34376253
H        2.40643666      -0.02848375      -0.78528708
O        0.06577071       0.10894002       1.54472812
H        0.91395986       0.15424232       2.05215123
9
Properties=species:S:1:pos:R:3 energy=-724.946675174292 pbc="F F F"
C       -1.02455575      -0.04821326      -0.52562059
C        0.28661074       0.01538518       0.17499394
H       -1.13009661      -0.98035136      -1.09870813
H       -1.15017893       0.79307882      -1.22197613
H       -1.85196438      -0.00687124       0.20348742
C        1.48402626      -0.00772651      -0.34376462
H        2.40644373      -0.02848360      -0.78528314
O        0.06576513       0.10893956       1.54472060
H        0.91394982       0.15424242       2.05215065
9
Properties=species:S:1:pos:R:3 energy=-724.94667430063 pbc="F F F"
C       -1.02455544      -0.04821338      -0.52562210
C        0.28661349       0.01538476       0.17498761
H       -1.13010216      -0.98035146      -1.09870781
H       -1.15018462       0.79307898      -1.22197556
H       -1.85195181      -0.00687036       0.20350063
C        1.48403041      -0.00772672      -0.34376671
H        2.40645083      -0.02848345      -0.78527918
O        0.06575954       0.10893910       1.54471306
H        0.91393976       0.15424253       2.05215006
9
Properties=species:S:1:pos:R:3 energy=-724.9466734239535 pbc="F F F"
C       -1.02455512      -0.04821351      -0.52562362
C        0.28661624       0.01538435       0.17498127
H       -1.13010771      -0.98035156      -1.09870749
H       -1.15019031       0.79307914      -1.22197499
H       -1.85193922      -0.00686948       0.20351386
C        1.48403457      -0.00772693      -0.34376880
H        2.40645793      -0.02848330      -0.78527521
O        0.06575394       0.10893864       1.54470551
H        0.91392969       0.15424264       2.05214948
9
Properties=species:S:1:pos:R:3 energy=-724.9466725442214 pbc="F F F"
C       -1.02455481      -0.04821363      -0.52562514
C        0.28661900       0.01538393       0.17497491
H       -1.13011327      -0.98035165      -1.09870717
H       -1.15019602       0.79307931      -1.22197442
H       -1.85192661      -0.00686860       0.20352711
C        1.48403874      -0.00772713      -0.34377090
H        2.40646505      -0.02848315      -0.78527124
O        0.06574833       0.10893818       1.54469795
H        0.91391960       0.15424275       2.05214889
9
Properties=species:S:1:pos:R:3 energy=-724.9466716614306 pbc="F F F"
C       -1.02455449      -0.04821376      -0.52562666
C        0.28662177       0.01538351       0.17496855
H       -1.13011885      -0.98035175      -1.09870684
H       -1.15020174       0.79307947      -1.22197385
H       -1.85191398      -0.00686771       0.20354039
C        1.48404291      -0.00772734      -0.34377301
H        2.40647218      -0.02848299      -0.78526726
O        0.06574270       0.10893771       1.54469038
H        0.91390950       0.15424285       2.05214830
9
Properties=species:S:1:pos:R:3 energy=-724.9466707755788 pbc="F F F"
C       -1.02455418      -0.04821388      -0.52562819
C        0.28662454       0.01538310       0.17496217
H       -1.13012443      -0.98035185      -1.09870652
H       -1.15020747       0.79307964      -1.22197327
H       -1.85190133      -0.00686682       0.20355369
C        1.48404710      -0.00772755      -0.34377511
H        2.40647933      -0.02848284      -0.78526326
O        0.06573707       0.10893725       1.54468279
H        0.91389938       0.15424296       2.05214771
9
Properties=species:S:1:pos:R:3 energy=-724.946669886637 pbc="F F F"
C       -1.02455386      -0.04821401      -0.52562971
C        0.28662731       0.01538268       0.17495579
H       -1.13013003      -0.98035195      -1.09870620
H       -1.15021320       0.79307980      -1.22197270
H       -1.85188866      -0.00686593       0.20356701
C        1.48405128      -0.00772776      -0.34377723
H        2.40648649      -0.02848268      -0.78525926
O        0.06573144       0.10893678       1.54467519
H        0.91388924       0.15424307       2.05214711
9
Properties=species:S:1:pos:R:3 energy=-724.9466689946084 pbc="F F F"
C       -1.02455355      -0.04821414      -0.52563124
C        0.28663009       0.01538226       0.17494939
H       -1.13013563      -0.98035205      -1.09870587
H       -1.15021895       0.79307996      -1.22197212
H       -1.85187596      -0.00686504       0.20358036
C        1.48405548      -0.00772796      -0.34377934
H        2.40649366      -0.02848253      -0.78525525
O        0.06572579       0.10893632       1.54466757
H        0.91387908       0.15424317       2.05214652
9
Properties=species:S:1:pos:R:3 energy=-724.9466680994784 pbc="F F F"
C       -1.02455323      -0.04821426      -0.52563278
C        0.28663287       0.01538184       0.17494298
H       -1.13014125      -0.98035215      -1.09870555
H       -1.15022471       0.79308013      -1.22197155
H       -1.85186324      -0.00686415       0.20359373
C        1.48405968      -0.00772817      -0.34378147
H        2.40650084      -0.02848237      -0.78525123
O        0.06572013       0.10893585       1.54465994
H        0.91386891       0.15424328       2.05214592
9
Properties=species:S:1:pos:R:3 energy=-724.9466672012446 pbc="F F F"
C       -1.02455292      -0.04821439      -0.52563431
C        0.28663566       0.01538142       0.17493655
H       -1.13014688      -0.98035224      -1.09870522
H       -1.15023048       0.79308029      -1.22197097
H       -1.85185050      -0.00686325       0.20360712
C        1.48406389      -0.00772838      -0.34378359
H        2.40650804      -0.02848221      -0.78524721
O        0.06571446       0.10893538       1.54465230
H        0.91385872       0.15424339       2.05214533
9
Properties=species:S:1:pos:R:3 energy=-724.9466662998852 pbc="F F F"
C       -1.02455260      -0.04821451      -0.52563585
C        0.28663845       0.01538100       0.17493012
H       -1.13015251      -0.98035234      -1.09870489
H       -1.15023626       0.79308046      -1.22197039
H       -1.85183773      -0.00686236       0.20362054
C        1.48406811      -0.00772859      -0.34378572
H        2.40651526      -0.02848206      -0.78524317
O        0.06570878       0.10893491       1.54464464
H        0.91384851       0.15424349       2.05214473
9
Properties=species:S:1:pos:R:3 energy=-724.9466653953926 pbc="F F F"
C       -1.02455228      -0.04821464      -0.52563739
C        0.28664125       0.01538058       0.17492367
H       -1.13015816      -0.98035244      -1.09870456
H       -1.15024205       0.79308062      -1.22196981
H       -1.85182495      -0.00686146       0.20363398
C        1.48407233      -0.00772880      -0.34378786
H        2.40652248      -0.02848190      -0.78523912
O        0.06570310       0.10893444       1.54463697
H        0.91383828       0.15424360       2.05214412
9
Properties=species:S:1:pos:R:3 energy=-724.9466644877541 pbc="F F F"
C       -1.02455197      -0.04821477      -0.52563893
C        0.28664405       0.01538016       0.17491722
H       -1.13016382      -0.98035254      -1.09870423
H       -1.15024785       0.79308079      -1.22196924
H       -1.85181214      -0.00686056       0.20364744
C        1.48407656      -0.00772901      -0.34379000
H        2.40652972      -0.02848174      -0.78523507
O        0.06569740       0.10893397       1.54462929
H        0.91382804       0.15424370       2.05214352
9
Properties=species:S:1:pos:R:3 energy=-724.9466635769662 pbc="F F F"
C       -1.02455165      -0.04821489      -0.52564048
C        0.28664686       0.01537973       0.17491075
H       -1.13016949      -0.98035264      -1.09870390
H       -1.15025367       0.79308095      -1.22196865
H       -1.85179931      -0.00685965       0.20366093
C        1.48408080      -0.00772922      -0.34379214
H        2.40653697      -0.02848158      -0.78523101
O        0.06569170       0.10893350       1.54462159
H        0.91381778       0.15424381       2.05214292
9
Properties=species:S:1:pos:R:3 energy=-724.9466626630177 pbc="F F F"
C       -1.02455133      -0.04821502      -0.52564203
C        0.28664967       0.01537931       0.17490427
H       -1.13017516      -0.98035274      -1.09870357
H       -1.15025949       0.79308112      -1.22196807
H       -1.85178646      -0.00685875       0.20367444
C        1.48408504      -0.00772943      -0.34379429
H        2.40654424      -0.02848142      -0.78522693
O        0.06568598       0.10893303       1.54461388
H        0.91380750       0.15424391       2.05214231
9
Properties=species:S:1:pos:R:3 energy=-724.9466617458735 pbc="F F F"
C       -1.02455102      -0.04821515      -0.52564358
C        0.28665249       0.01537888       0.17489778
H       -1.13018085      -0.98035284      -1.09870324
H       -1.15026532       0.79308128      -1.22196749
H       -1.85177358      -0.00685784       0.20368797
C        1.48408930      -0.00772964      -0.34379644
H        2.40655152      -0.02848126      -0.78522285
O        0.06568026       0.10893255       1.54460616
H        0.91379721       0.15424402       2.05214170
9
Properties=species:S:1:pos:R:3 energy=-724.9466608255473 pbc="F F F"
C       -1.02455070      -0.04821528      -0.52564513
C        0.28665531       0.01537846       0.17489127
H       -1.13018655      -0.98035294      -1.09870291
H       -1.15027117       0.79308145      -1.22196691
H       -1.85176069      -0.00685694       0.20370153
C        1.48409356      -0.00772985      -0.34379860
H        2.40655882      -0.02848110      -0.78521876
O        0.06567453       0.10893208       1.54459842
H        0.91378690       0.15424412       2.05214109
9
Properties=species:S:1:pos:R:3 energy=-724.9466599020337 pbc="F F F"
C       -1.02455038      -0.04821540      -0.52564669
C        0.28665814       0.01537803       0.17488476
H       -1.13019226      -0.98035304      -1.09870258
H       -1.15027702       0.79308162      -1.22196632
H       -1.85174777      -0.00685603       0.20371511
C        1.48409782      -0.00773007      -0.34380076
H        2.40656612      -0.02848093      -0.78521466
O        0.06566878       0.10893160       1.54459067
H        0.91377657       0.15424422       2.05214048
9
Properties=species:S:1:pos:R:3 energy=-724.9466589753016 pbc="F F F"
C       -1.02455006      -0.04821553      -0.52564825
C        0.28666097       0.01537761       0.17487823
H       -1.13019799      -0.98035314      -1.09870224
H       -1.15028289       0.79308178      -1.22196574
H       -1.85173482      -0.00685512       0.20372871
C        1.48410209      -0.00773028      -0.34380293
H        2.40657344      -0.02848077      -0.78521055
O        0.06566303       0.10893112       1.54458290
H        0.91376622       0.15424433       2.05213986
9
Properties=species:S:1:pos:R:3 energy=-724.9466580453533 pbc="F F F"
C       -1.02454974      -0.04821566      -0.52564981
C        0.28666381       0.01537718       0.17487169
H       -1.13020372      -0.98035324      -1.09870191
H       -1.15028876       0.79308195      -1.22196515
H       -1.85172186      -0.00685420       0.20374234
C        1.48410638      -0.00773049      -0.34380510
H        2.40658078      -0.02848061      -0.78520643
O        0.06565727       0.10893064       1.54457512
H        0.91375586       0.15424443       2.05213925
9
Properties=species:S:1:pos:R:3 energy=-724.9466571121691 pbc="F F F"
C       -1.02454943      -0.04821579      -0.52565137
C        0.28666665       0.01537675       0.17486514
H       -1.13020946      -0.98035334      -1.09870157
H       -1.15029465       0.79308211      -1.22196457
H       -1.85170887      -0.00685329       0.20375599
C        1.48411066      -0.00773070      -0.34380727
H        2.40658813      -0.02848044      -0.78520230
O        0.06565150       0.10893016       1.54456733
H        0.91374548       0.15424454       2.05213863
9
Properties=species:S:1:pos:R:3 energy=-724.9466561757275 pbc="F F F"
C       -1.02454911      -0.04821592      -0.52565294
C        0.28666949       0.01537632       0.17485857
H       -1.13021521      -0.98035345      -1.09870124
H       -1.15030055       0.79308228      -1.22196398
H       -1.85169586      -0.00685237       0.20376967
C        1.48411496      -0.00773091      -0.34380945
H        2.40659549      -0.02848028      -0.78519817
O        0.06564571       0.10892968       1.54455952
H        0.91373508       0.15424464       2.05213801
9
Properties=species:S:1:pos:R:3 energy=-724.9466552360407 pbc="F F F"
C       -1.02454879      -0.04821604      -0.52565451
C        0.28667234       0.01537589       0.17485200
H       -1.13022098      -0.98035355      -1.09870090
H       -1.15030646       0.79308244      -1.22196339
H       -1.85168283      -0.00685145       0.20378337
C        1.48411926      -0.00773113      -0.34381164
H        2.40660287      -0.02848011      -0.78519402
O        0.06563992       0.10892920       1.54455170
H        0.91372466       0.15424474       2.05213739
9
Properties=species:S:1:pos:R:3 energy=-724.9466542930995 pbc="F F F"
C       -1.02454847      -0.04821617      -0.52565608
C        0.28667520       0.01537546       0.17484541
H       -1.13022675      -0.98035365      -1.09870056
H       -1.15031238       0.79308261      -1.22196280
H       -1.85166978      -0.00685053       0.20379709
C        1.48412357      -0.00773134      -0.34381383
H        2.40661026      -0.02847994      -0.78518986
O        0.06563412       0.10892872       1.54454386
H        0.91371423       0.15424484       2.05213677
9
Properties=species:S:1:pos:R:3 energy=-724.9466533468654 pbc="F F F"
C       -1.02454815      -0.04821630      -0.52565766
C        0.28667806       0.01537503       0.17483881
H       -1.13023254      -0.98035375      -1.09870022
H       -1.15031831       0.79308278      -1.22196221
H       -1.85165670      -0.00684961       0.20381084
C        1.48412789      -0.00773155      -0.34381602
H        2.40661766      -0.02847977      -0.78518570
O        0.06562831       0.10892824       1.54453601
H        0.91370378       0.15424495       2.05213615
9
Properties=species:S:1:pos:R:3 energy=-724.9466523973424 pbc="F F F"
C       -1.02454783      -0.04821643      -0.52565924
C        0.28668092       0.01537460       0.17483220
H       -1.13023834      -0.98035385      -1.09869988
H       -1.15032425       0.79308294      -1.22196162
H       -1.85164360      -0.00684868       0.20382461
C        1.48413221      -0.00773177      -0.34381822
H        2.40662508      -0.02847961      -0.78518152
O        0.06562249       0.10892775       1.54452815
H        0.91369331       0.15424505       2.05213552
9
Properties=species:S:1:pos:R:3 energy=-724.946651444529 pbc="F F F"
C       -1.02454751      -0.04821656      -0.52566082
C        0.28668379       0.01537416       0.17482558
H       -1.13024414      -0.98035395      -1.09869954
H       -1.15033020       0.79308311      -1.22196103
H       -1.85163047      -0.00684776       0.20383840
C        1.48413654      -0.00773198      -0.34382042
H        2.40663251      -0.02847944      -0.78517734
O        0.06561666       0.10892727       1.54452027
H        0.91368282       0.15424515       2.05213489
9
Properties=species:S:1:pos:R:3 energy=-724.9466504883936 pbc="F F F"
C       -1.02454719      -0.04821669      -0.52566240
C        0.28668667       0.01537373       0.17481895
H       -1.13024996      -0.98035406      -1.09869920
H       -1.15033616       0.79308328      -1.22196043
H       -1.85161733      -0.00684683       0.20385222
C        1.48414088      -0.00773220      -0.34382263
H        2.40663996      -0.02847927      -0.78517315
O        0.06561082       0.10892678       1.54451238
H        0.91367232       0.15424525       2.05213426
9
Properties=species:S:1:pos:R:3 energy=-724.9466495289256 pbc="F F F"
C       -1.02454687      -0.04821682      -0.52566398
C        0.28668955       0.01537329       0.17481230
H       -1.13025579      -0.98035416      -1.09869886
H       -1.15034214       0.79308344      -1.22195984
H       -1.85160416      -0.00684590       0.20386607
C        1.48414522      -0.00773241      -0.34382484
H        2.40664742      -0.02847910      -0.78516895
O        0.06560498       0.10892629       1.54450448
H        0.91366179       0.15424535       2.05213363
9
Properties=species:S:1:pos:R:3 energy=-724.9466485661306 pbc="F F F"
C       -1.02454655      -0.04821695      -0.52566557
C        0.28669243       0.01537286       0.17480564
H       -1.13026163      -0.98035426      -1.09869852
H       -1.15034812       0.79308361      -1.22195925
H       -1.85159097      -0.00684496       0.20387993
C        1.48414958      -0.00773263      -0.34382706
H        2.40665489      -0.02847893      -0.78516473
O        0.06559912       0.10892580       1.54449656
H        0.91365125       0.15424546       2.05213300
9
Properties=species:S:1:pos:R:3 energy=-724.9466475999947 pbc="F F F"
C       -1.02454623      -0.04821708      -0.52566716
C        0.28669532       0.01537242       0.17479897
H       -1.13026748      -0.98035436      -1.09869817
H       -1.15035412       0.79308378      -1.22195865
H       -1.85157775      -0.00684403       0.20389383
C        1.48415394      -0.00773284      -0.34382928
H        2.40666238      -0.02847875      -0.78516051
O        0.06559325       0.10892531       1.54448862
H        0.91364070       0.15424556       2.05213236
9
Properties=species:S:1:pos:R:3 energy=-724.9466466304888 pbc="F F F"
C       -1.02454591      -0.04821721      -0.52566876
C        0.28669822       0.01537199       0.17479229
H       -1.13027334      -0.98035447      -1.09869783
H       -1.15036012       0.79308394      -1.22195805
H       -1.85156452      -0.00684309       0.20390774
C        1.48415830      -0.00773306      -0.34383151
H        2.40666988      -0.02847858      -0.78515628
O        0.06558737       0.10892482       1.54448067
H        0.91363012       0.15424566       2.05213173
9
Properties=species:S:1:pos:R:3 energy=-724.9466456576062 pbc="F F F"
C       -1.02454559      -0.04821734      -0.52567036
C        0.28670111       0.01537155       0.17478559
H       -1.13027921      -0.98035457      -1.09869748
H       -1.15036614       0.79308411      -1.22195746
H       -1.85155125      -0.00684216       0.20392168
C        1.48416268      -0.00773327      -0.34383374
H        2.40667740      -0.02847841      -0.78515204
O        0.06558148       0.10892433       1.54447271
H        0.91361953       0.15424576       2.05213109
9
Properties=species:S:1:pos:R:3 energy=-724.9466446813592 pbc="F F F"
C       -1.02454527      -0.04821747      -0.52567195
C        0.28670402       0.01537111       0.17477888
H       -1.13028510      -0.98035467      -1.09869714
H       -1.15037217       0.79308428      -1.22195686
H       -1.85153797      -0.00684122       0.20393565
C        1.48416706      -0.00773349      -0.34383598
H        2.40668493      -0.02847823      -0.78514779
O        0.06557558       0.10892384       1.54446474
H        0.91360892       0.15424586       2.05213045
9
Properties=species:S:1:pos:R:3 energy=-724.9466437017046 pbc="F F F"
C       -1.02454495      -0.04821760      -0.52567356
C        0.28670693       0.01537067       0.17477216
H       -1.13029099      -0.98035478      -1.09869679
H       -1.15037821       0.79308445      -1.22195626
H       -1.85152466      -0.00684028       0.20394964
C        1.48417145      -0.00773371      -0.34383822
H        2.40669248      -0.02847806      -0.78514353
O        0.06556968       0.10892334       1.54445675
H        0.91359829       0.15424596       2.05212981
9
Properties=species:S:1:pos:R:3 energy=-724.9466427186499 pbc="F F F"
C       -1.02454463      -0.04821773      -0.52567516
C        0.28670984       0.01537023       0.17476543
H       -1.13029690      -0.98035488      -1.09869644
H       -1.15038426       0.79308461      -1.22195566
H       -1.85151133      -0.00683933       0.20396365
C        1.48417584      -0.00773392      -0.34384046
H        2.40670004      -0.02847788      -0.78513926
O        0.06556376       0.10892285       1.54444874
H        0.91358764       0.15424606       2.05212916
9
Properties=species:S:1:pos:R:3 energy=-724.9466417321788 pbc="F F F"
C       -1.02454431      -0.04821786      -0.52567677
C        0.28671276       0.01536979       0.17475869
H       -1.13030281      -0.98035498      -1.09869609
H       -1.15039032       0.79308478      -1.22195506
H       -1.85149798      -0.00683839       0.20397769
C        1.48418025      -0.00773414      -0.34384271
H        2.40670761      -0.02847771      -0.78513499
O        0.06555783       0.10892235       1.54444072
H        0.91357697       0.15424616       2.05212852
9
Properties=species:S:1:pos:R:3 energy=-724.9466407422559 pbc="F F F"
C       -1.02454399      -0.04821800      -0.52567838
C        0.28671568       0.01536935       0.17475193
H       -1.13030874      -0.98035509      -1.09869574
H       -1.15039639       0.79308495      -1.22195445
H       -1.85148460      -0.00683744       0.20399175
C        1.48418466      -0.00773436      -0.34384497
H        2.40671520      -0.02847753      -0.78513070
O        0.06555190       0.10892185       1.54443269
H        0.91356629       0.15424626       2.05212787
9
Properties=species:S:1:pos:R:3 energy=-724.9466397489041 pbc="F F F"
C       -1.02454367      -0.04821813      -0.52567999
C        0.28671861       0.01536891       0.17474516
H       -1.13031468      -0.98035519      -1.09869539
H       -1.15040248       0.79308512      -1.22195385
H       -1.85147120      -0.00683649       0.20400584
C        1.48418908      -0.00773458      -0.34384723
H        2.40672280      -0.02847735      -0.78512640
O        0.06554595       0.10892136       1.54442464
H        0.91355559       0.15424636       2.05212722
9
Properties=species:S:1:pos:R:3 energy=-724.9466387520981 pbc="F F F"
C       -1.02454334      -0.04821826      -0.52568161
C        0.28672155       0.01536846       0.17473838
H       -1.13032063      -0.98035529      -1.09869504
H       -1.15040857       0.79308528      -1.22195325
H       -1.85145778      -0.00683554       0.20401995
C        1.48419350      -0.00773480      -0.34384949
H        2.40673041      -0.02847717      -0.78512209
O        0.06553999       0.10892086       1.54441658
H        0.91354487       0.15424645       2.05212657
9
Properties=species:S:1:pos:R:3 energy=-724.9466377518244 pbc="F F F"
C       -1.02454302      -0.04821839      -0.52568323
C        0.28672449       0.01536802       0.17473159
H       -1.13032659      -0.98035540      -1.09869469
H       -1.15041468       0.79308545      -1.22195264
H       -1.85144433      -0.00683459       0.20403408
C        1.48419794      -0.00773501      -0.34385176
H        2.40673804      -0.02847699      -0.78511778
O        0.06553403       0.10892036       1.54440850
H        0.91353414       0.15424655       2.05212592
9
Properties=species:S:1:pos:R:3 energy=-724.9466367480741 pbc="F F F"
C       -1.02454270      -0.04821852      -0.52568485
C        0.28672743       0.01536758       0.17472479
H       -1.13033256      -0.98035550      -1.09869434
H       -1.15042080       0.79308562      -1.22195204
H       -1.85143086      -0.00683363       0.20404824
C        1.48420238      -0.00773523      -0.34385403
H        2.40674569      -0.02847681      -0.78511345
O        0.06552805       0.10891986       1.54440041
H        0.91352338       0.15424665       2.05212526
9
Properties=species:S:1:pos:R:3 energy=-724.9466357408365 pbc="F F F"
C       -1.02454238      -0.04821866      -0.52568647
C        0.28673038       0.01536713       0.17471797
H       -1.13033855      -0.98035561      -1.09869398
H       -1.15042693       0.79308579      -1.22195143
H       -1.85141737      -0.00683267       0.20406243
C        1.48420683      -0.00773545      -0.34385631
H        2.40675335      -0.02847663      -0.78510911
O        0.06552206       0.10891935       1.54439231
H        0.91351261       0.15424675       2.05212461
9
Properties=species:S:1:pos:R:3 energy=-724.9466347300896 pbc="F F F"
C       -1.02454206      -0.04821879      -0.52568810
C        0.28673333       0.01536669       0.17471114
H       -1.13034454      -0.98035571      -1.09869363
H       -1.15043307       0.79308596      -1.22195082
H       -1.85140385      -0.00683171       0.20407664
C        1.48421128      -0.00773567      -0.34385860
H        2.40676102      -0.02847645      -0.78510477
O        0.06551607       0.10891885       1.54438419
H        0.91350182       0.15424685       2.05212395
9
Properties=species:S:1:pos:R:3 energy=-724.9466337158156 pbc="F F F"
C       -1.02454173      -0.04821892      -0.52568973
C        0.28673629       0.01536624       0.17470430
H       -1.13035055      -0.98035582      -1.09869327
H       -1.15043922       0.79308613      -1.22195021
H       -1.85139031      -0.00683075       0.20409087
C        1.48421574      -0.00773589      -0.34386088
H        2.40676871      -0.02847627      -0.78510041
O        0.06551006       0.10891834       1.54437605
H        0.91349101       0.15424695       2.05212329
9
Properties=species:S:1:pos:R:3 energy=-724.9466326980287 pbc="F F F"
C       -1.02454141      -0.04821905      -0.52569136
C        0.28673925       0.01536579       0.17469744
H       -1.13035656      -0.98035592      -1.09869292
H       -1.15044538       0.79308629      -1.22194960
H       -1.85137675      -0.00682979       0.20410513
C        1.48422022      -0.00773611      -0.34386318
H        2.40677641      -0.02847609      -0.78509605
O        0.06550405       0.10891784       1.54436790
H        0.91348018       0.15424704       2.05212263
9
Properties=species:S:1:pos:R:3 energy=-724.946631676701 pbc="F F F"
C       -1.02454109      -0.04821919      -0.52569300
C        0.28674222       0.01536534       0.17469058
H       -1.13036259      -0.98035603      -1.09869256
H       -1.15045156       0.79308646      -1.22194899
H       -1.85136316      -0.00682883       0.20411942
C        1.48422469      -0.00773633      -0.34386547
H        2.40678413      -0.02847590      -0.78509167