9
Properties=species:S:1:pos:R:3 energy=-722.6917618668839 pbc="F F F"
C       -7.82719939       1.31456964       0.88055284
C       -6.44829781       1.39614569       1.30098565
H       -7.83948349       0.63977849       0.04506013
H       -8.29166596       2.22954418       0.57452855
H       -8.48285546       0.89705688       1.61851780
C       -5.27461708       1.22473456       1.02198146
H       -4.26208338       1.11478703       1.03088773
O       -6.42071293       1.76515793       3.54251610
H       -5.56300451       1.77926559       4.02575974
