9
Properties=species:S:1:pos:R:3:momenta:R:3:forces:R:3 pbc="F F F"
C       -6.18281563       1.67752701      -1.27697682      -0.44553168       0.03092617       0.65951880       0.00352383       0.00870067      -0.01280346
C       -6.68117675       1.07101249      -0.05657285       0.54727222      -0.02443883       1.73343622       2.33072740       1.22323388       2.75457800
H       -6.15286559       0.96388554      -2.11530942       0.01639025      -0.06049837      -0.12127320      -0.00805553      -0.00422000      -0.00570650
H       -5.15181022       2.05996551      -1.12743631      -0.20362021       0.10431964      -0.40254628       0.01443529       0.01083064       0.00246661
H       -6.79323911       2.54327545      -1.58445513      -0.12256080      -0.06375935       0.36007520      -0.01990457       0.00615745      -0.00012060
C       -7.54112464       0.30641813       0.48479002      -0.19144333       0.76240273      -0.29141258      -0.01592655      -0.00321051      -0.01034590
H       -8.17496213      -0.28207303       1.04348605       0.22127963      -0.14953689      -0.34176448      -0.01360544      -0.00080635      -0.02937262
O       -5.62755815       1.64627525       1.15978157      -0.85973741      -1.45730964      -1.72617220      -2.26870488      -1.25433432      -2.72575368
H       -5.80912579       1.12424516       1.95516747       0.16584076       0.39922478       0.13417502      -0.02248955       0.01364854       0.02705816
