9
Properties=species:S:1:pos:R:3:momenta:R:3:forces:R:3 pbc="F F F"
C       -3.25340222       3.27629909       1.51329331      -0.71238635      -1.21235160       0.33674436       0.12091313      -0.53782710       0.36326918
C       -3.82314219       5.38065003       0.56415178      -0.99237993       1.17846186      -1.10542463       0.09125906      -0.06639839      -0.37356263
H       -3.82369487       2.76424818       0.78330684      -0.35701480       0.18463004      -0.93427769      -0.00892198      -0.02993228      -0.02603046
H       -3.68164662       3.45080047       2.47143942       0.15418980      -0.32049261      -0.11322516      -0.00736538      -0.01120324      -0.01611722
H       -2.22008707       3.47553062       1.38272192      -0.11466555      -0.03067441       0.06033793       0.00967027      -0.01542791      -0.01336722
C       -4.78613129       5.66141248       1.23894841      -0.52779643       0.86455442       0.83257416      -0.02532513       0.04110700      -0.00203830
H       -5.59624281       5.88014039       1.83679489      -0.20386927       0.51447703      -0.51461537       0.02489380      -0.02770952      -0.01317687
O       -2.79089567       5.32584315      -0.23622464      -1.52459095      -0.77182894       1.39094256       0.88298331      -0.79829631      -0.75724568
H       -2.43663872       4.33698777      -0.51538465      -0.37084089       0.30210102       0.46091946      -1.08810709       1.44568775       0.83826920
