 Entering Gaussian System, Link 0=g09
 Initial command:
 /cm/shared/apps/Gaussian09/g09/l1.exe "/local/Gau-1431.inp" -scrdir="/local/"
 Entering Link 1 = /cm/shared/apps/Gaussian09/g09/l1.exe PID=      1432.
  
 Copyright (c) 1988,1990,1992,1993,1995,1998,2003,2009,2013,
            Gaussian, Inc.  All Rights Reserved.
  
 This is part of the Gaussian(R) 09 program.  It is based on
 the Gaussian(R) 03 system (copyright 2003, Gaussian, Inc.),
 the Gaussian(R) 98 system (copyright 1998, Gaussian, Inc.),
 the Gaussian(R) 94 system (copyright 1995, Gaussian, Inc.),
 the Gaussian 92(TM) system (copyright 1992, Gaussian, Inc.),
 the Gaussian 90(TM) system (copyright 1990, Gaussian, Inc.),
 the Gaussian 88(TM) system (copyright 1988, Gaussian, Inc.),
 the Gaussian 86(TM) system (copyright 1986, Carnegie Mellon
 University), and the Gaussian 82(TM) system (copyright 1983,
 Carnegie Mellon University). Gaussian is a federally registered
 trademark of Gaussian, Inc.
  
 This software contains proprietary and confidential information,
 including trade secrets, belonging to Gaussian, Inc.
  
 This software is provided under written license and may be
 used, copied, transmitted, or stored only in accord with that
 written license.
  
 The following legend is applicable only to US Government
 contracts under FAR:
  
                    RESTRICTED RIGHTS LEGEND
  
 Use, reproduction and disclosure by the US Government is
 subject to restrictions as set forth in subparagraphs (a)
 and (c) of the Commercial Computer Software - Restricted
 Rights clause in FAR 52.227-19.
  
 Gaussian, Inc.
 340 Quinnipiac St., Bldg. 40, Wallingford CT 06492
  
  
 ---------------------------------------------------------------
 Warning -- This program may not be used in any manner that
 competes with the business of Gaussian, Inc. or will provide
 assistance to any competitor of Gaussian, Inc.  The licensee
 of this program is prohibited from giving any competitor of
 Gaussian, Inc. access to this program.  By using this program,
 the user acknowledges that Gaussian, Inc. is engaged in the
 business of creating and licensing software in the field of
 computational chemistry and represents and warrants to the
 licensee that it is not a competitor of Gaussian, Inc. and that
 it will not use this program in any manner prohibited above.
 ---------------------------------------------------------------
  

 Cite this work as:
 Gaussian 09, Revision D.01,
 M. J. Frisch, G. W. Trucks, H. B. Schlegel, G. E. Scuseria, 
 M. A. Robb, J. R. Cheeseman, G. Scalmani, V. Barone, B. Mennucci, 
 G. A. Petersson, H. Nakatsuji, M. Caricato, X. Li, H. P. Hratchian, 
 A. F. Izmaylov, J. Bloino, G. Zheng, J. L. Sonnenberg, M. Hada, 
 M. Ehara, K. Toyota, R. Fukuda, J. Hasegawa, M. Ishida, T. Nakajima, 
 Y. Honda, O. Kitao, H. Nakai, T. Vreven, J. A. Montgomery, Jr., 
 J. E. Peralta, F. Ogliaro, M. Bearpark, J. J. Heyd, E. Brothers, 
 K. N. Kudin, V. N. Staroverov, T. Keith, R. Kobayashi, J. Normand, 
 K. Raghavachari, A. Rendell, J. C. Burant, S. S. Iyengar, J. Tomasi, 
 M. Cossi, N. Rega, J. M. Millam, M. Klene, J. E. Knox, J. B. Cross, 
 V. Bakken, C. Adamo, J. Jaramillo, R. Gomperts, R. E. Stratmann, 
 O. Yazyev, A. J. Austin, R. Cammi, C. Pomelli, J. W. Ochterski, 
 R. L. Martin, K. Morokuma, V. G. Zakrzewski, G. A. Voth, 
 P. Salvador, J. J. Dannenberg, S. Dapprich, A. D. Daniels, 
 O. Farkas, J. B. Foresman, J. V. Ortiz, J. Cioslowski, 
 and D. J. Fox, Gaussian, Inc., Wallingford CT, 2013.
 
 ******************************************
 Gaussian 09:  ES64L-G09RevD.01 24-Apr-2013
                16-Feb-2021 
 ******************************************
 %nprocshared=1
 Will use up to    1 processors via shared memory.
 ----------------------------------------------------------------------
 #P upm6 scf=qc opt(calcall, ts, noeigentest, cartesian,maxcycle=100) N
 oSymm, guess=mix
 ----------------------------------------------------------------------
 1/5=1,6=100,10=4,11=1,14=-1,18=10,26=1,38=1/1,3;
 2/12=2,15=1,17=6,18=5,29=2,40=1/2;
 3/5=2,16=1,25=1,41=3900000,71=2,116=2,140=1/1,2,3;
 4/13=-1,35=1/1;
 5/5=2,8=3,35=1,38=5/8;
 8/6=4,10=90,11=11/1;
 11/6=1,8=1,9=11,15=111,16=1,31=1/1,2,10;
 10/6=1,31=1/2;
 6/7=2,8=2,9=2,10=2,18=1,28=1/1;
 7/7=1,10=1,25=1,30=1/1,2,3,16;
 1/5=1,6=100,10=4,11=1,14=-1,18=10,26=1/3(3);
 2/15=1,29=1/2;
 7/7=1,8=1,9=1,25=1,30=1,44=-1/16;
 99/12=1/99;
 2/15=1,29=1/2;
 3/5=2,16=1,25=1,41=3900000,71=2,116=2,135=20,140=1/1,2,3;
 4/5=5,16=3,35=1/1;
 5/5=2,8=3,35=1,38=5/8;
 8/6=4,10=90,11=11/1;
 11/6=1,8=1,9=11,15=111,16=1,31=1/1,2,10;
 10/6=1,31=1/2;
 7/7=1,10=1,25=1,30=1/1,2,3,16;
 1/5=1,6=100,10=4,11=1,14=-1,18=10,26=1/3(-8);
 2/15=1,29=1/2;
 6/7=2,8=2,9=2,10=2,18=1,19=2,28=1/1;
 7/7=1,8=1,9=1,25=1,30=1,44=-1/16;
 99/12=1/99;
 Leave Link    1 at Tue Feb 16 04:12:26 2021, MaxMem=           0 cpu:         0.0
 (Enter /cm/shared/apps/Gaussian09/g09/l101.exe)
 ------------------------------
 Gaussian input prepared by ASE
 ------------------------------
 Symbolic Z-matrix:
 Charge =  0 Multiplicity = 1
 C                     4.46801  -2.94708   0.96009 
 C                     5.18715  -3.8357   -0.06547 
 C                     5.4087   -3.18386  -1.37708 
 C                     5.96194  -4.07039  -2.62662 
 C                     4.86072  -4.47672   2.93211 
 C                     3.83025  -3.76329   2.08394 
 H                     5.17288  -2.20075   1.37631 
 H                     3.67311  -2.34914   0.46722 
 H                     6.18112  -4.15481   0.33189 
 H                     4.62222  -4.78953  -0.19904 
 H                     4.27341  -3.20577  -1.95416 
 H                     5.57528  -2.10554  -1.42046 
 C                     7.03546  -5.03134  -2.28644 
 H                     5.62024  -5.0555    2.37928 
 H                     3.20478  -3.1022    2.72623 
 H                     3.11226  -4.50716   1.67369 
 H                     7.34103  -5.02372  -1.23671 
 H                     7.94189  -4.8171   -2.87933 
 H                     6.73245  -6.06163  -2.53879 
 O                     4.84429  -4.4265    4.13915 
 O                     3.69289  -3.44957  -3.05509 
 O                     5.32177  -3.9017   -3.6422 
 
 NAtoms=     22 NQM=       22 NQMF=       0 NMMI=      0 NMMIF=      0
                NMic=       0 NMicF=      0.
                    Isotopes and Nuclear Properties:
 (Nuclear quadrupole moments (NQMom) in fm**2, nuclear magnetic moments (NMagM)
  in nuclear magnetons)

  Atom         1           2           3           4           5           6           7           8           9          10
 IAtWgt=          12          12          12          12          12          12           1           1           1           1
 AtmWgt=  12.0000000  12.0000000  12.0000000  12.0000000  12.0000000  12.0000000   1.0078250   1.0078250   1.0078250   1.0078250
 NucSpn=           0           0           0           0           0           0           1           1           1           1
 AtZEff=   0.0000000   0.0000000   0.0000000   0.0000000   0.0000000   0.0000000   0.0000000   0.0000000   0.0000000   0.0000000
 NQMom=    0.0000000   0.0000000   0.0000000   0.0000000   0.0000000   0.0000000   0.0000000   0.0000000   0.0000000   0.0000000
 NMagM=    0.0000000   0.0000000   0.0000000   0.0000000   0.0000000   0.0000000   2.7928460   2.7928460   2.7928460   2.7928460
 AtZNuc=   6.0000000   6.0000000   6.0000000   6.0000000   6.0000000   6.0000000   1.0000000   1.0000000   1.0000000   1.0000000

  Atom        11          12          13          14          15          16          17          18          19          20
 IAtWgt=           1           1          12           1           1           1           1           1           1          16
 AtmWgt=   1.0078250   1.0078250  12.0000000   1.0078250   1.0078250   1.0078250   1.0078250   1.0078250   1.0078250  15.9949146
 NucSpn=           1           1           0           1           1           1           1           1           1           0
 AtZEff=   0.0000000   0.0000000   0.0000000   0.0000000   0.0000000   0.0000000   0.0000000   0.0000000   0.0000000   0.0000000
 NQMom=    0.0000000   0.0000000   0.0000000   0.0000000   0.0000000   0.0000000   0.0000000   0.0000000   0.0000000   0.0000000
 NMagM=    2.7928460   2.7928460   0.0000000   2.7928460   2.7928460   2.7928460   2.7928460   2.7928460   2.7928460   0.0000000
 AtZNuc=   1.0000000   1.0000000   6.0000000   1.0000000   1.0000000   1.0000000   1.0000000   1.0000000   1.0000000   8.0000000

  Atom        21          22
 IAtWgt=          16          16
 AtmWgt=  15.9949146  15.9949146
 NucSpn=           0           0
 AtZEff=   0.0000000   0.0000000
 NQMom=    0.0000000   0.0000000
 NMagM=    0.0000000   0.0000000
 AtZNuc=   8.0000000   8.0000000
 Leave Link  101 at Tue Feb 16 04:12:26 2021, MaxMem=    33554432 cpu:         0.1
 (Enter /cm/shared/apps/Gaussian09/g09/l103.exe)

 GradGradGradGradGradGradGradGradGradGradGradGradGradGradGradGradGradGrad
 Berny optimization.
 Initialization pass.
 No Z-matrix variables, so optimization will use Cartesian coordinates.
 Trust Radius=3.00D-01 FncErr=1.00D-07 GrdErr=1.00D-07
 Number of steps in this run=    100 maximum allowed number of steps=    132.
 Search for a saddle point of order  1.
 GradGradGradGradGradGradGradGradGradGradGradGradGradGradGradGradGradGrad

 Leave Link  103 at Tue Feb 16 04:12:26 2021, MaxMem=    33554432 cpu:         0.0
 (Enter /cm/shared/apps/Gaussian09/g09/l202.exe)
 ---------------------------------------------------------------------------------------------------
                            Z-MATRIX (ANGSTROMS AND DEGREES)
   CD    Cent   Atom    N1       Length/X        N2       Alpha/Y        N3        Beta/Z          J
 ---------------------------------------------------------------------------------------------------
      1      1  C        0   4.468007         -2.947085          0.960087
      2      2  C        0   5.187146         -3.835704         -0.065475
      3      3  C        0   5.408702         -3.183865         -1.377075
      4      4  C        0   5.961938         -4.070385         -2.626618
      5      5  C        0   4.860718         -4.476719          2.932108
      6      6  C        0   3.830246         -3.763295          2.083942
      7      7  H        0   5.172877         -2.200752          1.376315
      8      8  H        0   3.673110         -2.349140          0.467222
      9      9  H        0   6.181117         -4.154810          0.331886
     10     10  H        0   4.622219         -4.789530         -0.199041
     11     11  H        0   4.273409         -3.205773         -1.954164
     12     12  H        0   5.575280         -2.105544         -1.420457
     13     13  C        0   7.035460         -5.031337         -2.286441
     14     14  H        0   5.620241         -5.055497          2.379282
     15     15  H        0   3.204777         -3.102198          2.726227
     16     16  H        0   3.112264         -4.507157          1.673688
     17     17  H        0   7.341026         -5.023718         -1.236708
     18     18  H        0   7.941888         -4.817098         -2.879333
     19     19  H        0   6.732450         -6.061625         -2.538794
     20     20  O        0   4.844291         -4.426504          4.139149
     21     21  O        0   3.692888         -3.449570         -3.055090
     22     22  O        0   5.321767         -3.901696         -3.642199
 ---------------------------------------------------------------------------------------------------
                         Z-Matrix orientation:                         
 ---------------------------------------------------------------------
 Center     Atomic      Atomic             Coordinates (Angstroms)
 Number     Number       Type             X           Y           Z
 ---------------------------------------------------------------------
      1          6           0        4.468007   -2.947085    0.960087
      2          6           0        5.187146   -3.835704   -0.065475
      3          6           0        5.408702   -3.183865   -1.377075
      4          6           0        5.961938   -4.070385   -2.626618
      5          6           0        4.860718   -4.476719    2.932108
      6          6           0        3.830246   -3.763295    2.083942
      7          1           0        5.172877   -2.200752    1.376315
      8          1           0        3.673110   -2.349140    0.467222
      9          1           0        6.181117   -4.154810    0.331886
     10          1           0        4.622219   -4.789530   -0.199041
     11          1           0        4.273409   -3.205773   -1.954164
     12          1           0        5.575280   -2.105544   -1.420457
     13          6           0        7.035460   -5.031337   -2.286441
     14          1           0        5.620241   -5.055497    2.379282
     15          1           0        3.204777   -3.102198    2.726227
     16          1           0        3.112264   -4.507157    1.673688
     17          1           0        7.341026   -5.023718   -1.236708
     18          1           0        7.941888   -4.817098   -2.879333
     19          1           0        6.732450   -6.061625   -2.538794
     20          8           0        4.844291   -4.426504    4.139149
     21          8           0        3.692888   -3.449570   -3.055090
     22          8           0        5.321767   -3.901696   -3.642199
 ---------------------------------------------------------------------
                    Distance matrix (angstroms):
                    1          2          3          4          5
     1  C    0.000000
     2  C    1.535768   0.000000
     3  C    2.530475   1.481309   0.000000
     4  C    4.044514   2.686044   1.628909   0.000000
     5  C    2.526434   3.082687   4.532199   5.681305   0.000000
     6  C    1.528393   2.542914   3.847844   5.179554   1.513351
     7  H    1.107745   2.179915   2.933135   4.487941   2.774520
     8  H    1.110097   2.187680   2.666547   4.215835   3.465930
     9  H    2.188147   1.117007   2.111850   2.967812   2.933980
    10  H    2.182193   1.116587   2.141140   2.864462   3.155761
    11  H    2.932175   2.190634   1.273735   2.012679   5.082902
    12  H    2.757035   2.231609   1.091973   2.337718   5.007784
    13  C    4.634207   3.127059   2.624203   1.480404   5.680701
    14  H    2.790549   2.766279   4.202140   5.113338   1.103394
    15  H    2.176938   3.501631   4.658438   6.098547   2.161905
    16  H    2.186570   2.789385   4.041273   5.177262   2.154447
    17  H    4.170439   2.724402   2.671824   2.177746   4.881615
    18  H    5.505084   4.058267   3.367679   2.131114   6.586525
    19  H    5.202907   3.668787   3.373930   2.136922   5.995505
    20  O    3.526571   4.259748   5.682556   6.866699   1.208196
    21  O    4.120067   3.364477   2.414612   2.391148   6.185904
    22  O    4.777158   3.579865   2.377736   1.212304   6.615493
                    6          7          8          9         10
     6  C    0.000000
     7  H    2.178287   0.000000
     8  H    2.153674   1.760049   0.000000
     9  H    2.957969   2.434280   3.093358   0.000000
    10  H    2.625336   3.080055   2.701892   1.764913   0.000000
    11  H    4.100430   3.593216   2.637667   3.125068   2.389647
    12  H    4.251364   2.827177   2.690896   2.763555   3.099026
    13  C    5.566109   4.989710   5.107077   2.890301   3.199913
    14  H    2.227352   3.058700   3.843393   2.306003   2.777505
    15  H    1.113908   2.551134   2.426837   3.962255   3.662435
    16  H    1.112267   3.107099   2.535182   3.367854   2.422150
    17  H    4.994092   4.415642   4.848748   2.135621   2.919505
    18  H    6.530711   5.711674   5.959254   3.721675   4.266723
    19  H    5.922398   5.715478   5.672587   3.490088   3.397903
    20  O    2.385794   3.563031   4.378374   4.044277   4.359013
    21  O    5.150431   4.836038   3.690260   4.261485   3.288794
    22  O    5.918824   5.301025   4.692104   4.073807   3.623942
                   11         12         13         14         15
    11  H    0.000000
    12  H    1.786118   0.000000
    13  C    3.327464   3.382649   0.000000
    14  H    4.900428   4.810641   4.875695   0.000000
    15  H    4.801955   4.879303   6.597163   3.125735   0.000000
    16  H    4.025316   4.626870   5.599005   2.662422   1.757928
    17  H    3.637299   3.415752   1.093330   4.004683   6.041991
    18  H    4.112182   3.883513   1.104097   5.753251   7.536803
    19  H    3.813733   4.270866   1.103173   5.141670   6.994508
    20  O    6.240557   6.068807   6.815809   2.023577   2.537349
    21  O    1.268258   2.832284   3.776982   5.985490   5.812276
    22  O    2.105428   2.868199   2.459860   6.138288   6.758528
                   16         17         18         19         20
    16  H    0.000000
    17  H    5.159425   0.000000
    18  H    6.644646   1.761234   0.000000
    19  H    5.767765   1.772864   1.768490   0.000000
    20  O    3.014121   5.957364   7.681585   7.129775   0.000000
    21  O    4.880262   4.369596   4.467105   4.040833   7.351000
    22  O    5.788535   3.335076   2.878360   2.805855   7.813628
                   21         22
    21  O    0.000000
    22  O    1.789515   0.000000
 Symmetry turned off by external request.
 Stoichiometry    C7H12O3
 Framework group  C1[X(C7H12O3)]
 Deg. of freedom    60
 Full point group                 C1      NOp   1
 Rotational constants (GHZ):      2.6852755      0.4848697      0.4317747
 Leave Link  202 at Tue Feb 16 04:12:26 2021, MaxMem=    33554432 cpu:         0.0
 (Enter /cm/shared/apps/Gaussian09/g09/l301.exe)
 Standard basis: VSTO-6G (5D, 7F)
 Ernie: Thresh=  0.10000D-02 Tol=  0.10000D-05 Strict=F.
  NNHCO=     0 NNPyr=     0 NCTC=     0               EPep=         0.000000000
    EC=       250.554514667  ECS=         4.061581790   EG=         0.351708655
   EHC=         0.001113304  EAt=       -66.250074573  AtH=         3.187411664
 EPDDG=         0.000000000  ECC=       254.968918415 EAtT=        69.437486237
    52 basis functions,   312 primitive gaussians,    52 cartesian basis functions
    29 alpha electrons       29 beta electrons
       nuclear repulsion energy       324.4064046524 Hartrees.
 IExCor=    0 DFT=F Ex=HF Corr=None ExCW=0 ScaHFX=  1.000000
 ScaDFX=  1.000000  1.000000  1.000000  1.000000 ScalE2=  1.000000  1.000000
 IRadAn=      0 IRanWt=     -1 IRanGd=            0 ICorTp=0 IEmpDi=  4
 Integral buffers will be    131072 words long.
 Regular integral format.
 Two-electron integral symmetry is turned off.
 Leave Link  301 at Tue Feb 16 04:12:26 2021, MaxMem=    33554432 cpu:         0.0
 (Enter /cm/shared/apps/Gaussian09/g09/l302.exe)
 Do NDO integrals.
 NPDir=0 NMtPBC=     1 NCelOv=     1 NCel=       1 NClECP=     1 NCelD=      1
         NCelK=      1 NCelE2=     1 NClLst=     1 CellRange=     0.0.
 One-electron integrals computed using PRISM.
 NBasis=    52 RedAO= F EigKep=  0.00D+00  NBF=    52
 NBsUse=    52 1.00D-04 EigRej=  0.00D+00 NBFU=    52
 Leave Link  302 at Tue Feb 16 04:12:26 2021, MaxMem=    33554432 cpu:         0.1
 (Enter /cm/shared/apps/Gaussian09/g09/l303.exe)
 DipDrv:  MaxL=1.
 Leave Link  303 at Tue Feb 16 04:12:26 2021, MaxMem=    33554432 cpu:         0.0
 (Enter /cm/shared/apps/Gaussian09/g09/l401.exe)
 Simple Huckel Guess.
 JPrj=0 DoOrth=F DoCkMO=T.
 Mixing orbitals, IMix= 1 IMixAn=  0 NRI=1 NE=   29 Coef=  7.07106781D-01  7.07106781D-01
 Mixing orbitals, IMix= 1 IMixAn=  0 NRI=1 NE=   29 Coef= -7.07106781D-01  7.07106781D-01
 Initial guess <Sx>= 0.0000 <Sy>= 0.0000 <Sz>= 0.0000 <S**2>= 1.0000 S= 0.6180
 Leave Link  401 at Tue Feb 16 04:12:26 2021, MaxMem=    33554432 cpu:         0.0
 (Enter /cm/shared/apps/Gaussian09/g09/l508.exe)
 Direct SCF.
 Tight linear equation convergence will be used.
 UPM6 wavefunction.
 Quadratic Convergence SCF Method.
 Line search only if initial step raises energy.
 Two-electron integral symmetry not used.
 ReadGW:  IGet=1 IStart=       59293 Next=       59293 LGW=           0.
 Keep J ints in memory in canonical form, NReq=905730.
 FoFCou: FMM=F IPFlag=           0 FMFlag=           0 FMFlg1=           0
         NFxFlg=           0 DoJE=F BraDBF=F KetDBF=F FulRan=T
         wScrn=  0.000000 ICntrl=     600 IOpCl=  2 I1Cent=           0 NGrid=           0
         NMat0=    1 NMatS0=    112 NMatT0=    0 NMatD0=    1 NMtDS0=    0 NMtDT0=    0
 Symmetry not used in FoFCou.
 Iteration   1 EE= 0.495231264860081                                    Grad=4.719D-01 Max rot=    4.4495 deg.
 Gradient too large for Newton-Raphson -- use scaled steepest descent instead.
 Alpha Gap=     0.353 HL deriv= 7.44D-02
  Beta Gap=     0.274 HL deriv= 9.23D-02
     ILin= 1 X=0.000D+00 Y= 4.952312648601D-01 DE= 0.00D+00 F= -6.22D-01
     ILin= 2 X=3.000D-01 Y= 3.269172765682D-01 DE=-1.68D-01 F= -4.98D-01
     ILin= 3 X=4.000D-01 Y= 2.792666570349D-01 DE=-2.16D-01 F= -4.55D-01
     ILin= 4 X=6.000D-01 Y= 1.972768831004D-01 DE=-2.98D-01 F= -3.65D-01
     ILin= 5 X=9.000D-01 Y= 1.089059743739D-01 DE=-3.86D-01 F= -2.23D-01
     ILin= 6 X=1.300D+00 Y= 5.860035687772D-02 DE=-4.37D-01 F= -2.69D-02
     ILin= 7 X=1.900D+00 Y= 1.327272015328D-01 DE=-3.63D-01 F=  2.74D-01
     An  expanding polynomial of degree  7 produced  1.3539
     Minimum is close to point  6 DX=  5.39D-02 DF= -7.27D-04 DXR=  3.98D-02 DFR=  1.66D-03 which will be used.
 Iteration   2 EE= 0.586003568777187E-01 Delta-E=       -0.436630907982 Grad=1.415D-01 Max rot=    1.4183 deg.
 Gradient too large for Newton-Raphson -- use scaled steepest descent instead.
 Alpha Gap=     0.349 HL deriv= 2.09D-02
  Beta Gap=     0.352 HL deriv= 2.78D-02
     ILin= 1 X=0.000D+00 Y= 5.860035687772D-02 DE= 0.00D+00 F= -4.93D-02
     ILin= 2 X=6.000D-01 Y= 3.555448830184D-02 DE=-2.30D-02 F= -2.75D-02
     ILin= 3 X=1.200D+00 Y= 2.570726520207D-02 DE=-3.29D-02 F= -5.35D-03
     ILin= 4 X=2.300D+00 Y= 4.221221700777D-02 DE=-1.64D-02 F=  3.53D-02
     An  expanding polynomial of degree  4 produced  1.3453
 Iteration   3 EE= 0.253208181909486E-01 Delta-E=       -0.033279538687 Grad=4.810D-02 Max rot=    0.5658 deg.
 Gradient too large for Newton-Raphson -- use scaled steepest descent instead.
 Alpha Gap=     0.383 HL deriv= 1.59D-02
  Beta Gap=     0.339 HL deriv= 1.10D-02
     ILin= 1 X=0.000D+00 Y= 2.532081819095D-02 DE= 0.00D+00 F= -7.21D-03
     ILin= 2 X=1.300D+00 Y= 2.059261328037D-02 DE=-4.73D-03 F= -3.80D-05
     Reject lnstep minimum 1.303D+00 FVal= 2.059256488041D-02 Lims=  0.00D+00  1.30D+00
     ILin= 3 X=2.700D+00 Y= 2.602971345630D-02 DE= 7.09D-04 F=  7.82D-03
     An  expanding polynomial of degree  3 produced  1.3029
     Minimum is close to point  2 DX=  2.87D-03 DF= -2.30D-08 DXR=  2.20D-03 DFR=  4.85D-06 which will be used.
 Iteration   4 EE= 0.205926132803711E-01 Delta-E=       -0.004728204911 Grad=2.310D-02 Max rot=    0.2728 deg.
 Gradient too large for Newton-Raphson -- use scaled steepest descent instead.
 Alpha Gap=     0.372 HL deriv= 1.12D-02
  Beta Gap=     0.346 HL deriv= 1.04D-02
     ILin= 1 X=0.000D+00 Y= 2.059261328037D-02 DE= 0.00D+00 F= -1.63D-03
     ILin= 2 X=1.300D+00 Y= 1.936464251958D-02 DE=-1.23D-03 F= -2.55D-04
     Reject lnstep minimum 1.390D+00 FVal= 1.935566198717D-02 Lims=  0.00D+00  1.30D+00
     ILin= 3 X=2.600D+00 Y= 1.992715170070D-02 DE=-6.65D-04 F=  1.12D-03
     An  expanding polynomial of degree  3 produced  1.5416
 Iteration   5 EE= 0.193339096084628E-01 Delta-E=       -0.001258703672 Grad=1.457D-02 Max rot=    0.2340 deg.
 Gradient too large for Newton-Raphson -- use scaled steepest descent instead.
 Alpha Gap=     0.381 HL deriv= 6.06D-03
  Beta Gap=     0.342 HL deriv= 3.04D-03
     ILin= 1 X=0.000D+00 Y= 1.933390960846D-02 DE= 0.00D+00 F= -6.32D-04
     ILin= 2 X=1.400D+00 Y= 1.889524262651D-02 DE=-4.39D-04 F=  6.11D-06
     Accept linear search using points  1 and  2.
     An  expanding polynomial of degree  2 produced  1.3945
     Minimum is close to point  2 DX= -5.48D-03 DF= -1.19D-08 DXR=  3.93D-03 DFR=  2.72D-05 which will be used.
 Iteration   6 EE= 0.188952426265132E-01 Delta-E=       -0.000438666982 Grad=8.471D-03 Max rot=    0.1129 deg.
 QCNR:  CnvC1=3.65D-09 CnvC2=3.65D-08
 LinEq1:  Iter=  0 NonCon=     1 RMS=4.34D-04 Max=7.20D-03 NDo=     1
 AX will form     1 AO Fock derivatives at one time.
 LinEq1:  Iter=  1 NonCon=     1 RMS=1.47D-04 Max=1.76D-03 NDo=     1
 LinEq1:  Iter=  2 NonCon=     1 RMS=2.70D-05 Max=5.30D-04 NDo=     1
 LinEq1:  Iter=  3 NonCon=     1 RMS=5.25D-06 Max=7.58D-05 NDo=     1
 LinEq1:  Iter=  4 NonCon=     1 RMS=1.15D-06 Max=1.81D-05 NDo=     1
 LinEq1:  Iter=  5 NonCon=     1 RMS=2.49D-07 Max=3.03D-06 NDo=     1
 LinEq1:  Iter=  6 NonCon=     1 RMS=4.84D-08 Max=4.34D-07 NDo=     1
 LinEq1:  Iter=  7 NonCon=     1 RMS=1.04D-08 Max=1.30D-07 NDo=     1
 LinEq1:  Iter=  8 NonCon=     0 RMS=2.63D-09 Max=3.40D-08 NDo=     1
 Linear equations converged to 3.652D-09 3.652D-08 after     8 iterations.
 Angle between quadratic step and gradient=  47.49 degrees.
     ILin= 1 X=0.000D+00 Y= 1.889524262651D-02 DE= 0.00D+00 F= -7.26D-04
     ILin= 2 X=1.000D+00 Y= 1.853697444960D-02 DE=-3.58D-04 F=  1.37D-05
     Accept linear search using points  1 and  2.
     An  expanding polynomial of degree  2 produced  0.9818
     Minimum is close to point  2 DX= -1.82D-02 DF= -1.24D-07 DXR=  1.85D-02 DFR=  3.47D-04 which will be used.
 Iteration   7 EE= 0.185369744496029E-01 Delta-E=       -0.000358268177 Grad=2.891D-04 Max rot=    0.0060 deg.
 QCNR:  CnvC1=2.89D-09 CnvC2=2.89D-08
 LinEq1:  Iter=  0 NonCon=     1 RMS=1.55D-05 Max=2.48D-04 NDo=     1
 LinEq1:  Iter=  1 NonCon=     1 RMS=2.80D-06 Max=3.65D-05 NDo=     1
 LinEq1:  Iter=  2 NonCon=     1 RMS=8.23D-07 Max=7.86D-06 NDo=     1
 LinEq1:  Iter=  3 NonCon=     1 RMS=2.00D-07 Max=2.16D-06 NDo=     1
 LinEq1:  Iter=  4 NonCon=     1 RMS=4.52D-08 Max=4.31D-07 NDo=     1
 LinEq1:  Iter=  5 NonCon=     1 RMS=1.12D-08 Max=1.31D-07 NDo=     1
 LinEq1:  Iter=  6 NonCon=     0 RMS=2.39D-09 Max=2.14D-08 NDo=     1
 Linear equations converged to 2.891D-09 2.891D-08 after     6 iterations.
 Angle between quadratic step and gradient=  43.36 degrees.
     ILin= 1 X=0.000D+00 Y= 1.853697444960D-02 DE= 0.00D+00 F= -8.44D-07
     ILin= 2 X=1.000D+00 Y= 1.853655248573D-02 DE=-4.22D-07 F= -5.35D-10
     Reject lnstep minimum 1.001D+00 FVal= 1.853655248556D-02 Lims=  0.00D+00  1.00D+00
     ILin= 3 X=2.000D+00 Y= 1.853697281297D-02 DE=-1.64D-09 F=  8.41D-07
     An  expanding polynomial of degree  3 produced  1.0010
     Minimum is close to point  2 DX=  9.72D-04 DF= -3.98D-13 DXR=  9.71D-04 DFR=  9.42D-07 which will be used.
 Iteration   8 EE= 0.185365524857275E-01 Delta-E=       -0.000000421964 Grad=8.313D-06 Max rot=    0.0001 deg.
 QCNR:  CnvC1=8.31D-11 CnvC2=8.31D-10
 LinEq1:  Iter=  0 NonCon=     1 RMS=3.51D-07 Max=3.34D-06 NDo=     1
 LinEq1:  Iter=  1 NonCon=     1 RMS=1.10D-07 Max=1.25D-06 NDo=     1
 LinEq1:  Iter=  2 NonCon=     1 RMS=2.69D-08 Max=3.18D-07 NDo=     1
 LinEq1:  Iter=  3 NonCon=     1 RMS=5.88D-09 Max=6.88D-08 NDo=     1
 LinEq1:  Iter=  4 NonCon=     1 RMS=1.37D-09 Max=1.08D-08 NDo=     1
 LinEq1:  Iter=  5 NonCon=     1 RMS=3.70D-10 Max=4.81D-09 NDo=     1
 LinEq1:  Iter=  6 NonCon=     1 RMS=8.79D-11 Max=1.16D-09 NDo=     1
 LinEq1:  Iter=  7 NonCon=     0 RMS=1.67D-11 Max=1.73D-10 NDo=     1
 Linear equations converged to 8.313D-11 8.313D-10 after     7 iterations.
 Angle between quadratic step and gradient=  55.46 degrees.
     ILin= 1 X=0.000D+00 Y= 1.853655248573D-02 DE= 0.00D+00 F= -4.69D-10
     ILin= 2 X=1.000D+00 Y= 1.853655224943D-02 DE=-2.36D-10
 Iteration   9 EE= 0.185365522494294E-01 Delta-E=       -0.000000000236 Grad=1.494D-07 Max rot=    0.0000 deg.
 Rotation gradient small -- convergence achieved.
 SCF Done:  E(UPM6) =  0.185365522494E-01 a.u. after    9 cycles
            Convg  =    0.1494D-06                    42 Fock formations.
              S**2 =  1.0258                  -V/T =  1.0005
 <Sx>= 0.0000 <Sy>= 0.0000 <Sz>= 0.0000 <S**2>= 1.0258 S= 0.6295
 <L.S>= 0.000000000000E+00
 Annihilation of the first spin contaminant:
 S**2 before annihilation     1.0258,   after     0.2137
 Leave Link  508 at Tue Feb 16 04:12:26 2021, MaxMem=    33554432 cpu:         0.1
 (Enter /cm/shared/apps/Gaussian09/g09/l801.exe)
 Range of M.O.s used for correlation:     1    52
 NBasis=    52 NAE=    29 NBE=    29 NFC=     0 NFV=     0
 NROrb=     52 NOA=    29 NOB=    29 NVA=    23 NVB=    23
 Leave Link  801 at Tue Feb 16 04:12:26 2021, MaxMem=    33554432 cpu:         0.0
 (Enter /cm/shared/apps/Gaussian09/g09/l1101.exe)
 Using compressed storage, NAtomX=    22.
 Will process     23 centers per pass.
 Leave Link 1101 at Tue Feb 16 04:12:26 2021, MaxMem=    33554432 cpu:         0.1
 (Enter /cm/shared/apps/Gaussian09/g09/l1102.exe)
 Symmetrizing basis deriv contribution to polar:
 IMax=3 JMax=2 DiffMx= 0.00D+00
 Leave Link 1102 at Tue Feb 16 04:12:26 2021, MaxMem=    33554432 cpu:         0.0
 (Enter /cm/shared/apps/Gaussian09/g09/l1110.exe)
 Forming Gx(P) for the SCF density, NAtomX=    22.
 Integral derivatives from FoFJK, PRISM(SPDF).
 Do as many integral derivatives as possible in FoFJK.
 G2DrvN: MDV=      33495261.
 G2DrvN: will do    23 centers at a time, making    1 passes.
 Calling FoFCou, ICntrl=  3107 FMM=F I1Cent=   0 AccDes= 0.00D+00.
 FoFJK:  IHMeth=40 ICntrl=    3107 DoSepK=F KAlg= 0 I1Cent=   0 FoldK=F
 IRaf=         0 NMat=   1 IRICut=       1 DoRegI=T DoRafI=F ISym2E= 0.
 FoFCou: FMM=F IPFlag=           0 FMFlag=      100000 FMFlg1=           0
         NFxFlg=           0 DoJE=F BraDBF=F KetDBF=F FulRan=T
         wScrn=  0.000000 ICntrl=    3107 IOpCl=  1 I1Cent=           0 NGrid=           0
         NMat0=    1 NMatS0=      1 NMatT0=    0 NMatD0=    1 NMtDS0=    0 NMtDT0=    0
 Symmetry not used in FoFCou.
 End of G2Drv F.D. properties file   721 does not exist.
 End of G2Drv F.D. properties file   722 does not exist.
 End of G2Drv F.D. properties file   788 does not exist.
 Leave Link 1110 at Tue Feb 16 04:12:26 2021, MaxMem=    33554432 cpu:         0.0
 (Enter /cm/shared/apps/Gaussian09/g09/l1002.exe)
 Minotr:  UHF open shell wavefunction.
          IDoAtm=1111111111111111111111
          Direct CPHF calculation.
          Differentiating once with respect to electric field.
                with respect to dipole field.
          Differentiating once with respect to nuclear coordinates.
          Electric field/nuclear overlap derivatives assumed to be zero.
          Requested convergence is 1.0D-08 RMS, and 1.0D-07 maximum.
          NewPWx=T KeepS1=F KeepF1=F KeepIn=T MapXYZ=F SortEE=F KeepMc=T.
          MDV=      33495213 using IRadAn=       2.
 Keep J ints in memory in canonical form, NReq=888555.
 FoFCou: FMM=F IPFlag=           0 FMFlag=           0 FMFlg1=           0
         NFxFlg=           0 DoJE=F BraDBF=F KetDBF=F FulRan=T
         wScrn=  0.000000 ICntrl=     600 IOpCl=  2 I1Cent=           0 NGrid=           0
         NMat0=    1 NMatS0=    112 NMatT0=    0 NMatD0=    1 NMtDS0=    0 NMtDT0=    0
 Symmetry not used in FoFCou.
          Solving linear equations separately, MaxMat=       0.
          There are    69 degrees of freedom in the 1st order CPHF.  IDoFFX=5 NUNeed=    69.
 LinEq1:  Iter=  0 NonCon=    69 RMS=2.14D-01 Max=2.16D+00 NDo=    69
 AX will form    69 AO Fock derivatives at one time.
 LinEq1:  Iter=  1 NonCon=    69 RMS=3.87D-02 Max=2.88D-01 NDo=    69
 LinEq1:  Iter=  2 NonCon=    69 RMS=9.20D-03 Max=1.17D-01 NDo=    69
 LinEq1:  Iter=  3 NonCon=    69 RMS=2.13D-03 Max=2.04D-02 NDo=    69
 LinEq1:  Iter=  4 NonCon=    69 RMS=4.63D-04 Max=3.05D-03 NDo=    69
 LinEq1:  Iter=  5 NonCon=    69 RMS=1.01D-04 Max=9.51D-04 NDo=    69
 LinEq1:  Iter=  6 NonCon=    69 RMS=2.64D-05 Max=3.89D-04 NDo=    69
 LinEq1:  Iter=  7 NonCon=    61 RMS=5.21D-06 Max=7.14D-05 NDo=    69
 LinEq1:  Iter=  8 NonCon=    31 RMS=9.28D-07 Max=8.89D-06 NDo=    69
 LinEq1:  Iter=  9 NonCon=     6 RMS=1.74D-07 Max=1.43D-06 NDo=    69
 LinEq1:  Iter= 10 NonCon=     3 RMS=3.18D-08 Max=3.71D-07 NDo=    69
 LinEq1:  Iter= 11 NonCon=     0 RMS=6.21D-09 Max=5.94D-08 NDo=    69
 Linear equations converged to 1.000D-08 1.000D-07 after    11 iterations.
 FullF1:  Do perturbations    1 to     3.
 Isotropic polarizability for W=    0.000000       70.68 Bohr**3.
 End of Minotr F.D. properties file   721 does not exist.
 End of Minotr F.D. properties file   722 does not exist.
 End of Minotr F.D. properties file   788 does not exist.
 Leave Link 1002 at Tue Feb 16 04:12:27 2021, MaxMem=    33554432 cpu:         0.4
 (Enter /cm/shared/apps/Gaussian09/g09/l601.exe)
 Copying SCF densities to generalized density rwf, IOpCl= 1 IROHF=0.

 **********************************************************************

            Population analysis using the SCF density.

 **********************************************************************

 Alpha  occ. eigenvalues --   -1.20228  -1.18167  -1.09191  -1.02984  -0.98599
 Alpha  occ. eigenvalues --   -0.90424  -0.85483  -0.82182  -0.75846  -0.73574
 Alpha  occ. eigenvalues --   -0.64354  -0.63040  -0.61866  -0.60162  -0.58614
 Alpha  occ. eigenvalues --   -0.56898  -0.56449  -0.54187  -0.52837  -0.52121
 Alpha  occ. eigenvalues --   -0.51746  -0.49928  -0.48742  -0.47445  -0.46165
 Alpha  occ. eigenvalues --   -0.40915  -0.38052  -0.36270  -0.34503
 Alpha virt. eigenvalues --   -0.02267   0.00435   0.01505   0.06020   0.10333
 Alpha virt. eigenvalues --    0.10511   0.11120   0.12543   0.13212   0.14690
 Alpha virt. eigenvalues --    0.15237   0.15823   0.16053   0.16314   0.16766
 Alpha virt. eigenvalues --    0.17120   0.18066   0.18849   0.19255   0.19529
 Alpha virt. eigenvalues --    0.20217   0.20693   0.21002
  Beta  occ. eigenvalues --   -1.22348  -1.18167  -1.09151  -1.03223  -0.99209
  Beta  occ. eigenvalues --   -0.93695  -0.86647  -0.82481  -0.75896  -0.73969
  Beta  occ. eigenvalues --   -0.65158  -0.63391  -0.61895  -0.59990  -0.58688
  Beta  occ. eigenvalues --   -0.57074  -0.56644  -0.54604  -0.53740  -0.52550
  Beta  occ. eigenvalues --   -0.51161  -0.49106  -0.48754  -0.47531  -0.45349
  Beta  occ. eigenvalues --   -0.44157  -0.38036  -0.37094  -0.36693
  Beta virt. eigenvalues --   -0.05621  -0.00654   0.00438   0.06386   0.09707
  Beta virt. eigenvalues --    0.10578   0.11370   0.12683   0.13262   0.14317
  Beta virt. eigenvalues --    0.15256   0.15813   0.16111   0.16320   0.16765
  Beta virt. eigenvalues --    0.17699   0.18248   0.18881   0.19534   0.20071
  Beta virt. eigenvalues --    0.20492   0.20705   0.21015
          Condensed to atoms (all electrons):
               1          2          3          4          5          6
     1  C    4.221903   0.000000   0.000000   0.000000   0.000000   0.000000
     2  C    0.000000   4.263131   0.000000   0.000000   0.000000   0.000000
     3  C    0.000000   0.000000   4.339938   0.000000   0.000000   0.000000
     4  C    0.000000   0.000000   0.000000   3.486799   0.000000   0.000000
     5  C    0.000000   0.000000   0.000000   0.000000   3.590478   0.000000
     6  C    0.000000   0.000000   0.000000   0.000000   0.000000   4.450057
     7  H    0.000000   0.000000   0.000000   0.000000   0.000000   0.000000
     8  H    0.000000   0.000000   0.000000   0.000000   0.000000   0.000000
     9  H    0.000000   0.000000   0.000000   0.000000   0.000000   0.000000
    10  H    0.000000   0.000000   0.000000   0.000000   0.000000   0.000000
    11  H    0.000000   0.000000   0.000000   0.000000   0.000000   0.000000
    12  H    0.000000   0.000000   0.000000   0.000000   0.000000   0.000000
    13  C    0.000000   0.000000   0.000000   0.000000   0.000000   0.000000
    14  H    0.000000   0.000000   0.000000   0.000000   0.000000   0.000000
    15  H    0.000000   0.000000   0.000000   0.000000   0.000000   0.000000
    16  H    0.000000   0.000000   0.000000   0.000000   0.000000   0.000000
    17  H    0.000000   0.000000   0.000000   0.000000   0.000000   0.000000
    18  H    0.000000   0.000000   0.000000   0.000000   0.000000   0.000000
    19  H    0.000000   0.000000   0.000000   0.000000   0.000000   0.000000
    20  O    0.000000   0.000000   0.000000   0.000000   0.000000   0.000000
    21  O    0.000000   0.000000   0.000000   0.000000   0.000000   0.000000
    22  O    0.000000   0.000000   0.000000   0.000000   0.000000   0.000000
               7          8          9         10         11         12
     1  C    0.000000   0.000000   0.000000   0.000000   0.000000   0.000000
     2  C    0.000000   0.000000   0.000000   0.000000   0.000000   0.000000
     3  C    0.000000   0.000000   0.000000   0.000000   0.000000   0.000000
     4  C    0.000000   0.000000   0.000000   0.000000   0.000000   0.000000
     5  C    0.000000   0.000000   0.000000   0.000000   0.000000   0.000000
     6  C    0.000000   0.000000   0.000000   0.000000   0.000000   0.000000
     7  H    0.859235   0.000000   0.000000   0.000000   0.000000   0.000000
     8  H    0.000000   0.849758   0.000000   0.000000   0.000000   0.000000
     9  H    0.000000   0.000000   0.853606   0.000000   0.000000   0.000000
    10  H    0.000000   0.000000   0.000000   0.843684   0.000000   0.000000
    11  H    0.000000   0.000000   0.000000   0.000000   0.724804   0.000000
    12  H    0.000000   0.000000   0.000000   0.000000   0.000000   0.816745
    13  C    0.000000   0.000000   0.000000   0.000000   0.000000   0.000000
    14  H    0.000000   0.000000   0.000000   0.000000   0.000000   0.000000
    15  H    0.000000   0.000000   0.000000   0.000000   0.000000   0.000000
    16  H    0.000000   0.000000   0.000000   0.000000   0.000000   0.000000
    17  H    0.000000   0.000000   0.000000   0.000000   0.000000   0.000000
    18  H    0.000000   0.000000   0.000000   0.000000   0.000000   0.000000
    19  H    0.000000   0.000000   0.000000   0.000000   0.000000   0.000000
    20  O    0.000000   0.000000   0.000000   0.000000   0.000000   0.000000
    21  O    0.000000   0.000000   0.000000   0.000000   0.000000   0.000000
    22  O    0.000000   0.000000   0.000000   0.000000   0.000000   0.000000
              13         14         15         16         17         18
     1  C    0.000000   0.000000   0.000000   0.000000   0.000000   0.000000
     2  C    0.000000   0.000000   0.000000   0.000000   0.000000   0.000000
     3  C    0.000000   0.000000   0.000000   0.000000   0.000000   0.000000
     4  C    0.000000   0.000000   0.000000   0.000000   0.000000   0.000000
     5  C    0.000000   0.000000   0.000000   0.000000   0.000000   0.000000
     6  C    0.000000   0.000000   0.000000   0.000000   0.000000   0.000000
     7  H    0.000000   0.000000   0.000000   0.000000   0.000000   0.000000
     8  H    0.000000   0.000000   0.000000   0.000000   0.000000   0.000000
     9  H    0.000000   0.000000   0.000000   0.000000   0.000000   0.000000
    10  H    0.000000   0.000000   0.000000   0.000000   0.000000   0.000000
    11  H    0.000000   0.000000   0.000000   0.000000   0.000000   0.000000
    12  H    0.000000   0.000000   0.000000   0.000000   0.000000   0.000000
    13  C    4.603457   0.000000   0.000000   0.000000   0.000000   0.000000
    14  H    0.000000   0.911266   0.000000   0.000000   0.000000   0.000000
    15  H    0.000000   0.000000   0.814050   0.000000   0.000000   0.000000
    16  H    0.000000   0.000000   0.000000   0.820285   0.000000   0.000000
    17  H    0.000000   0.000000   0.000000   0.000000   0.805887   0.000000
    18  H    0.000000   0.000000   0.000000   0.000000   0.000000   0.795192
    19  H    0.000000   0.000000   0.000000   0.000000   0.000000   0.000000
    20  O    0.000000   0.000000   0.000000   0.000000   0.000000   0.000000
    21  O    0.000000   0.000000   0.000000   0.000000   0.000000   0.000000
    22  O    0.000000   0.000000   0.000000   0.000000   0.000000   0.000000
              19         20         21         22
     1  C    0.000000   0.000000   0.000000   0.000000
     2  C    0.000000   0.000000   0.000000   0.000000
     3  C    0.000000   0.000000   0.000000   0.000000
     4  C    0.000000   0.000000   0.000000   0.000000
     5  C    0.000000   0.000000   0.000000   0.000000
     6  C    0.000000   0.000000   0.000000   0.000000
     7  H    0.000000   0.000000   0.000000   0.000000
     8  H    0.000000   0.000000   0.000000   0.000000
     9  H    0.000000   0.000000   0.000000   0.000000
    10  H    0.000000   0.000000   0.000000   0.000000
    11  H    0.000000   0.000000   0.000000   0.000000
    12  H    0.000000   0.000000   0.000000   0.000000
    13  C    0.000000   0.000000   0.000000   0.000000
    14  H    0.000000   0.000000   0.000000   0.000000
    15  H    0.000000   0.000000   0.000000   0.000000
    16  H    0.000000   0.000000   0.000000   0.000000
    17  H    0.000000   0.000000   0.000000   0.000000
    18  H    0.000000   0.000000   0.000000   0.000000
    19  H    0.791499   0.000000   0.000000   0.000000
    20  O    0.000000   6.454897   0.000000   0.000000
    21  O    0.000000   0.000000   6.446338   0.000000
    22  O    0.000000   0.000000   0.000000   6.256990
          Atomic-Atomic Spin Densities.
               1          2          3          4          5          6
     1  C    0.004189   0.000000   0.000000   0.000000   0.000000   0.000000
     2  C    0.000000  -0.029497   0.000000   0.000000   0.000000   0.000000
     3  C    0.000000   0.000000   0.707726   0.000000   0.000000   0.000000
     4  C    0.000000   0.000000   0.000000  -0.035673   0.000000   0.000000
     5  C    0.000000   0.000000   0.000000   0.000000   0.000099   0.000000
     6  C    0.000000   0.000000   0.000000   0.000000   0.000000  -0.000594
     7  H    0.000000   0.000000   0.000000   0.000000   0.000000   0.000000
     8  H    0.000000   0.000000   0.000000   0.000000   0.000000   0.000000
     9  H    0.000000   0.000000   0.000000   0.000000   0.000000   0.000000
    10  H    0.000000   0.000000   0.000000   0.000000   0.000000   0.000000
    11  H    0.000000   0.000000   0.000000   0.000000   0.000000   0.000000
    12  H    0.000000   0.000000   0.000000   0.000000   0.000000   0.000000
    13  C    0.000000   0.000000   0.000000   0.000000   0.000000   0.000000
    14  H    0.000000   0.000000   0.000000   0.000000   0.000000   0.000000
    15  H    0.000000   0.000000   0.000000   0.000000   0.000000   0.000000
    16  H    0.000000   0.000000   0.000000   0.000000   0.000000   0.000000
    17  H    0.000000   0.000000   0.000000   0.000000   0.000000   0.000000
    18  H    0.000000   0.000000   0.000000   0.000000   0.000000   0.000000
    19  H    0.000000   0.000000   0.000000   0.000000   0.000000   0.000000
    20  O    0.000000   0.000000   0.000000   0.000000   0.000000   0.000000
    21  O    0.000000   0.000000   0.000000   0.000000   0.000000   0.000000
    22  O    0.000000   0.000000   0.000000   0.000000   0.000000   0.000000
               7          8          9         10         11         12
     1  C    0.000000   0.000000   0.000000   0.000000   0.000000   0.000000
     2  C    0.000000   0.000000   0.000000   0.000000   0.000000   0.000000
     3  C    0.000000   0.000000   0.000000   0.000000   0.000000   0.000000
     4  C    0.000000   0.000000   0.000000   0.000000   0.000000   0.000000
     5  C    0.000000   0.000000   0.000000   0.000000   0.000000   0.000000
     6  C    0.000000   0.000000   0.000000   0.000000   0.000000   0.000000
     7  H   -0.000220   0.000000   0.000000   0.000000   0.000000   0.000000
     8  H    0.000000  -0.000304   0.000000   0.000000   0.000000   0.000000
     9  H    0.000000   0.000000   0.027075   0.000000   0.000000   0.000000
    10  H    0.000000   0.000000   0.000000   0.010025   0.000000   0.000000
    11  H    0.000000   0.000000   0.000000   0.000000  -0.091611   0.000000
    12  H    0.000000   0.000000   0.000000   0.000000   0.000000  -0.023831
    13  C    0.000000   0.000000   0.000000   0.000000   0.000000   0.000000
    14  H    0.000000   0.000000   0.000000   0.000000   0.000000   0.000000
    15  H    0.000000   0.000000   0.000000   0.000000   0.000000   0.000000
    16  H    0.000000   0.000000   0.000000   0.000000   0.000000   0.000000
    17  H    0.000000   0.000000   0.000000   0.000000   0.000000   0.000000
    18  H    0.000000   0.000000   0.000000   0.000000   0.000000   0.000000
    19  H    0.000000   0.000000   0.000000   0.000000   0.000000   0.000000
    20  O    0.000000   0.000000   0.000000   0.000000   0.000000   0.000000
    21  O    0.000000   0.000000   0.000000   0.000000   0.000000   0.000000
    22  O    0.000000   0.000000   0.000000   0.000000   0.000000   0.000000
              13         14         15         16         17         18
     1  C    0.000000   0.000000   0.000000   0.000000   0.000000   0.000000
     2  C    0.000000   0.000000   0.000000   0.000000   0.000000   0.000000
     3  C    0.000000   0.000000   0.000000   0.000000   0.000000   0.000000
     4  C    0.000000   0.000000   0.000000   0.000000   0.000000   0.000000
     5  C    0.000000   0.000000   0.000000   0.000000   0.000000   0.000000
     6  C    0.000000   0.000000   0.000000   0.000000   0.000000   0.000000
     7  H    0.000000   0.000000   0.000000   0.000000   0.000000   0.000000
     8  H    0.000000   0.000000   0.000000   0.000000   0.000000   0.000000
     9  H    0.000000   0.000000   0.000000   0.000000   0.000000   0.000000
    10  H    0.000000   0.000000   0.000000   0.000000   0.000000   0.000000
    11  H    0.000000   0.000000   0.000000   0.000000   0.000000   0.000000
    12  H    0.000000   0.000000   0.000000   0.000000   0.000000   0.000000
    13  C   -0.015106   0.000000   0.000000   0.000000   0.000000   0.000000
    14  H    0.000000  -0.000034   0.000000   0.000000   0.000000   0.000000
    15  H    0.000000   0.000000   0.000100   0.000000   0.000000   0.000000
    16  H    0.000000   0.000000   0.000000   0.000030   0.000000   0.000000
    17  H    0.000000   0.000000   0.000000   0.000000  -0.000739   0.000000
    18  H    0.000000   0.000000   0.000000   0.000000   0.000000   0.000155
    19  H    0.000000   0.000000   0.000000   0.000000   0.000000   0.000000
    20  O    0.000000   0.000000   0.000000   0.000000   0.000000   0.000000
    21  O    0.000000   0.000000   0.000000   0.000000   0.000000   0.000000
    22  O    0.000000   0.000000   0.000000   0.000000   0.000000   0.000000
              19         20         21         22
     1  C    0.000000   0.000000   0.000000   0.000000
     2  C    0.000000   0.000000   0.000000   0.000000
     3  C    0.000000   0.000000   0.000000   0.000000
     4  C    0.000000   0.000000   0.000000   0.000000
     5  C    0.000000   0.000000   0.000000   0.000000
     6  C    0.000000   0.000000   0.000000   0.000000
     7  H    0.000000   0.000000   0.000000   0.000000
     8  H    0.000000   0.000000   0.000000   0.000000
     9  H    0.000000   0.000000   0.000000   0.000000
    10  H    0.000000   0.000000   0.000000   0.000000
    11  H    0.000000   0.000000   0.000000   0.000000
    12  H    0.000000   0.000000   0.000000   0.000000
    13  C    0.000000   0.000000   0.000000   0.000000
    14  H    0.000000   0.000000   0.000000   0.000000
    15  H    0.000000   0.000000   0.000000   0.000000
    16  H    0.000000   0.000000   0.000000   0.000000
    17  H    0.000000   0.000000   0.000000   0.000000
    18  H    0.000000   0.000000   0.000000   0.000000
    19  H    0.000298   0.000000   0.000000   0.000000
    20  O    0.000000   0.000006   0.000000   0.000000
    21  O    0.000000   0.000000  -0.354643   0.000000
    22  O    0.000000   0.000000   0.000000  -0.197451
 Mulliken charges and spin densities:
               1          2
     1  C   -0.221903   0.004189
     2  C   -0.263131  -0.029497
     3  C   -0.339938   0.707726
     4  C    0.513201  -0.035673
     5  C    0.409522   0.000099
     6  C   -0.450057  -0.000594
     7  H    0.140765  -0.000220
     8  H    0.150242  -0.000304
     9  H    0.146394   0.027075
    10  H    0.156316   0.010025
    11  H    0.275196  -0.091611
    12  H    0.183255  -0.023831
    13  C   -0.603457  -0.015106
    14  H    0.088734  -0.000034
    15  H    0.185950   0.000100
    16  H    0.179715   0.000030
    17  H    0.194113  -0.000739
    18  H    0.204808   0.000155
    19  H    0.208501   0.000298
    20  O   -0.454897   0.000006
    21  O   -0.446338  -0.354643
    22  O   -0.256990  -0.197451
 Sum of Mulliken charges =   0.00000   0.00000
 Mulliken charges and spin densities with hydrogens summed into heavy atoms:
               1          2
     1  C    0.069104   0.003666
     2  C    0.039579   0.007603
     3  C   -0.156683   0.683895
     4  C    0.513201  -0.035673
     5  C    0.498256   0.000064
     6  C   -0.084392  -0.000464
    13  C    0.003966  -0.015392
    20  O   -0.454897   0.000006
    21  O   -0.171142  -0.446255
    22  O   -0.256990  -0.197451
 APT charges:
               1
     1  C   -0.151181
     2  C   -0.373825
     3  C   -0.054573
     4  C    0.943882
     5  C    0.913717
     6  C   -0.679863
     7  H    0.135305
     8  H    0.143352
     9  H    0.134628
    10  H    0.146233
    11  H   -0.126877
    12  H    0.149771
    13  C   -0.924183
    14  H    0.005523
    15  H    0.196780
    16  H    0.195408
    17  H    0.234906
    18  H    0.265283
    19  H    0.249510
    20  O   -0.712085
    21  O   -0.017866
    22  O   -0.673709
 Sum of APT charges =   0.00014
 APT charges with hydrogens summed into heavy atoms:
               1
     1  C    0.127476
     2  C   -0.092964
     3  C    0.095198
     4  C    0.943882
     5  C    0.919239
     6  C   -0.287674
    13  C   -0.174484
    20  O   -0.712085
    21  O   -0.144743
    22  O   -0.673709
 Charge=              0.0000 electrons
 Dipole moment (field-independent basis, Debye):
    X=              4.0673    Y=             -1.1089    Z=              0.7014  Tot=              4.2737
 N-N= 3.244064046524D+02 E-N=-5.758915719827D+02  KE=-3.411042563059D+01
  Exact polarizability:  69.483 -12.184  44.398  12.286   2.393  98.149
 Approx polarizability:  49.242  -7.027  30.196  13.141   1.571  65.786
 Leave Link  601 at Tue Feb 16 04:12:27 2021, MaxMem=    33554432 cpu:         0.0
 (Enter /cm/shared/apps/Gaussian09/g09/l701.exe)
 Compute integral second derivatives.
 ... and contract with generalized density number  0.
 Leave Link  701 at Tue Feb 16 04:12:27 2021, MaxMem=    33554432 cpu:         0.1
 (Enter /cm/shared/apps/Gaussian09/g09/l702.exe)
 L702 exits ... SP integral derivatives will be done elsewhere.
 Leave Link  702 at Tue Feb 16 04:12:27 2021, MaxMem=    33554432 cpu:         0.0
 (Enter /cm/shared/apps/Gaussian09/g09/l703.exe)
 Compute integral second derivatives, UseDBF=F ICtDFT=           0.
 Integral derivatives from FoFJK, PRISM(SPDF).
 Calling FoFJK, ICntrl=    100127 FMM=F ISym2X=0 I1Cent= 0 IOpClX= 1 NMat=1 NMatS=1 NMatT=0.
 FoFJK:  IHMeth=40 ICntrl=  100127 DoSepK=F KAlg= 0 I1Cent=   0 FoldK=F
 IRaf=         0 NMat=   1 IRICut=       1 DoRegI=T DoRafI=F ISym2E= 0.
 FoFCou: FMM=F IPFlag=           0 FMFlag=      100000 FMFlg1=         800
         NFxFlg=           0 DoJE=F BraDBF=F KetDBF=F FulRan=T
         wScrn=  0.000000 ICntrl=  100127 IOpCl=  1 I1Cent=           0 NGrid=           0
         NMat0=    1 NMatS0=      1 NMatT0=    0 NMatD0=    1 NMtDS0=    0 NMtDT0=    0
 Symmetry not used in FoFCou.
 Leave Link  703 at Tue Feb 16 04:12:27 2021, MaxMem=    33554432 cpu:         0.0
 (Enter /cm/shared/apps/Gaussian09/g09/l716.exe)
 Dipole        = 1.60021388D+00-4.36257361D-01 2.75958087D-01
 Polarizability= 6.94825215D+01-1.21843503D+01 4.43981439D+01
                 1.22855084D+01 2.39334871D+00 9.81490173D+01
 HyperPolar    =-1.03811978D+02 5.39908527D+01-2.74687943D+01
                 1.02571869D+01 8.80363574D+01 9.04481825D-01
                -4.07945568D+00 7.28513394D+00 3.21605765D+01
                -1.83973328D+02
 -------------------------------------------------------------------
 Center     Atomic                   Forces (Hartrees/Bohr)
 Number     Number              X              Y              Z
 -------------------------------------------------------------------
      1        6           0.000366463    0.000574288   -0.001694223
      2        6           0.006480722   -0.007569304    0.003862258
      3        6           0.040233725   -0.021306078   -0.023612156
      4        6          -0.004864971    0.024211045    0.065877260
      5        6          -0.001006948   -0.000031835   -0.001589152
      6        6          -0.000299073   -0.000243506    0.001123334
      7        1           0.000168754    0.000077309    0.000424694
      8        1          -0.000150050   -0.000254158   -0.001131782
      9        1          -0.000980084    0.000447905    0.001709238
     10        1          -0.000082942    0.001153236   -0.000292606
     11        1          -0.068061202    0.005138243   -0.038690007
     12        1           0.004640081   -0.005114583   -0.001890272
     13        6           0.002440622    0.003744481   -0.013958559
     14        1          -0.000399431    0.000678738    0.001074750
     15        1           0.000828493   -0.000276050   -0.000290846
     16        1           0.000649061    0.000389306    0.000407498
     17        1          -0.000741513    0.001061476    0.002194650
     18        1           0.001397200   -0.001581444   -0.000488865
     19        1          -0.000055790   -0.000663264   -0.000382523
     20        8           0.000469074   -0.000398510    0.001412774
     21        8          -0.005709981    0.014901984    0.035833603
     22        8           0.024677792   -0.014939280   -0.029899066
 -------------------------------------------------------------------
 Cartesian Forces:  Max     0.068061202 RMS     0.016243210
 Leave Link  716 at Tue Feb 16 04:12:27 2021, MaxMem=    33554432 cpu:         0.0
 (Enter /cm/shared/apps/Gaussian09/g09/l103.exe)

 GradGradGradGradGradGradGradGradGradGradGradGradGradGradGradGradGradGrad
 Berny optimization.
 Search for a saddle point.
 Step number   1 out of a maximum of  100
 All quantities printed in internal units (Hartrees-Bohrs-Radians)
 Swapping is turned off.
 Second derivative matrix not updated -- analytic derivatives used.
 ITU=  0
     Eigenvalues ---   -0.36350  -0.01080  -0.00208  -0.00084  -0.00022
     Eigenvalues ---    0.00009   0.00071   0.00170   0.00594   0.00769
     Eigenvalues ---    0.01106   0.01480   0.01852   0.02206   0.02740
     Eigenvalues ---    0.03394   0.03494   0.03690   0.04123   0.04425
     Eigenvalues ---    0.04591   0.05395   0.05508   0.05918   0.06174
     Eigenvalues ---    0.06500   0.06780   0.07464   0.07749   0.08283
     Eigenvalues ---    0.08628   0.09774   0.12094   0.12509   0.13098
     Eigenvalues ---    0.14342   0.17223   0.18081   0.21539   0.22267
     Eigenvalues ---    0.24277   0.26939   0.30102   0.37740   0.41187
     Eigenvalues ---    0.44998   0.48986   0.51033   0.53967   0.54921
     Eigenvalues ---    0.57320   0.59703   0.60652   0.66290   0.68219
     Eigenvalues ---    0.69000   0.70251   0.79965   1.58101   1.68601
 Eigenvectors required to have negative eigenvalues:
                          Z11       X11       X3        Z21       Z3
   1                    0.59715   0.49922  -0.42017  -0.36473  -0.18234
                          Y11       X12       X21       Z2        Y21
   1                    0.12862   0.09834  -0.05226   0.04546  -0.04521
 Eigenvalue     2 is  -1.08D-02 should be greater than     0.000000 Eigenvector:
                          Y22       Y11       Y21       X22       X19
   1                    0.47555  -0.46252  -0.43372   0.29625  -0.21501
                          Y18       X12       Z22       Z11       Y4
   1                   -0.16867  -0.15151  -0.14340   0.13038   0.11724
 Eigenvalue     3 is  -2.08D-03 should be greater than     0.000000 Eigenvector:
                          X10       X22       Y22       X9        Y9
   1                    0.31583  -0.28702  -0.28239   0.25857   0.25077
                          X20       Z11       X2        Y11       Z21
   1                   -0.24943   0.22080   0.21510  -0.20854   0.18841
 Eigenvalue     4 is  -8.42D-04 should be greater than     0.000000 Eigenvector:
                          Z19       Z18       Y17       X17       Y18
   1                    0.50976  -0.41091   0.39206   0.39068  -0.35291
                          X19       X18       Z17       X10       Y9
   1                   -0.23316  -0.17332  -0.11563   0.08300   0.05866
 Eigenvalue     5 is  -2.19D-04 should be greater than     0.000000 Eigenvector:
                          Y20       X10       Z19       Y16       Y17
   1                    0.35203   0.24963  -0.24518  -0.24002  -0.22075
                          X15       Z21       Y8        Y22       X7
   1                   -0.20999   0.20875  -0.20641   0.19332  -0.18941
 RFO step:  Lambda0=1.717780465D-02 Lambda=-4.36742351D-02.
 Linear search not attempted -- option 19 set.
 Maximum step size (   0.300) exceeded in Quadratic search.
    -- Step size scaled by   0.270
 TrRot=  0.004173  0.004456 -0.004721 -1.819635 -0.000736  1.819232
 Variable       Old X    -DE/DX   Delta X   Delta X   Delta X     New X
                                 (Linear)    (Quad)   (Total)
    X1        8.44331   0.00037   0.00000  -0.02396  -0.02171   8.42159
    Y1       -5.56918   0.00057   0.00000  -0.02310  -0.02075  -5.58994
    Z1        1.81430  -0.00169   0.00000  -0.01383  -0.01608   1.79822
    X2        9.80229   0.00648   0.00000  -0.02402  -0.02280   9.77948
    Y2       -7.24843  -0.00757   0.00000  -0.03147  -0.03105  -7.27948
    Z2       -0.12373   0.00386   0.00000  -0.01038  -0.01168  -0.13541
    X3       10.22096   0.04023   0.00000  -0.04046  -0.03921  10.18176
    Y3       -6.01663  -0.02131   0.00000  -0.04405  -0.04558  -6.06221
    Z3       -2.60230  -0.02361   0.00000  -0.03951  -0.04175  -2.64404
    X4       11.26643  -0.00486   0.00000  -0.02014  -0.01996  11.24647
    Y4       -7.69191   0.02421   0.00000  -0.00024  -0.00381  -7.69573
    Z4       -4.96359   0.06588   0.00000   0.06089   0.05962  -4.90397
    X5        9.18543  -0.00101   0.00000   0.02034   0.02211   9.20753
    Y5       -8.45977  -0.00003   0.00000   0.01091   0.01561  -8.44416
    Z5        5.54088  -0.00159   0.00000   0.00606   0.00570   5.54658
    X6        7.23812  -0.00030   0.00000  -0.00017   0.00184   7.23996
    Y6       -7.11160  -0.00024   0.00000  -0.01956  -0.01521  -7.12681
    Z6        3.93808   0.00112   0.00000   0.00568   0.00473   3.94281
    X7        9.77532   0.00017   0.00000  -0.03082  -0.02786   9.74746
    Y7       -4.15882   0.00008   0.00000  -0.00977  -0.00740  -4.16622
    Z7        2.60086   0.00042   0.00000  -0.02364  -0.02715   2.57371
    X8        6.94117  -0.00015   0.00000  -0.03743  -0.03491   6.90626
    Y8       -4.43923  -0.00025   0.00000  -0.03747  -0.03518  -4.47441
    Z8        0.88292  -0.00113   0.00000  -0.00879  -0.01157   0.87135
    X9       11.68062  -0.00098   0.00000  -0.02910  -0.02799  11.65263
    Y9       -7.85145   0.00045   0.00000  -0.02206  -0.02185  -7.87330
    Z9        0.62717   0.00171   0.00000  -0.00146  -0.00268   0.62450
   X10        8.73473  -0.00008   0.00000  -0.03319  -0.03275   8.70198
   Y10       -9.05090   0.00115   0.00000  -0.02184  -0.02116  -9.07206
   Z10       -0.37613  -0.00029   0.00000  -0.01006  -0.00989  -0.38602
   X11        8.07557  -0.06806   0.00000  -0.01980  -0.01866   8.05691
   Y11       -6.05803   0.00514   0.00000   0.17751   0.17610  -5.88194
   Z11       -3.69284  -0.03869   0.00000   0.01394   0.01196  -3.68088
   X12       10.53575   0.00464   0.00000   0.06734   0.06941  10.60516
   Y12       -3.97890  -0.00511   0.00000  -0.04676  -0.04848  -4.02739
   Z12       -2.68428  -0.00189   0.00000   0.01636   0.01260  -2.67168
   X13       13.29509   0.00244   0.00000   0.01356   0.01312  13.30821
   Y13       -9.50785   0.00374   0.00000   0.01222   0.00824  -9.49961
   Z13       -4.32075  -0.01396   0.00000   0.01306   0.01270  -4.30805
   X14       10.62072  -0.00040   0.00000   0.02123   0.02237  10.64308
   Y14       -9.55351   0.00068   0.00000   0.01249   0.01587  -9.53764
   Z14        4.49619   0.00107   0.00000   0.00738   0.00753   4.50372
   X15        6.05615   0.00083   0.00000  -0.00643  -0.00370   6.05245
   Y15       -5.86230  -0.00028   0.00000  -0.02394  -0.01825  -5.88055
   Z15        5.15182  -0.00029   0.00000   0.00309   0.00147   5.15329
   X16        5.88133   0.00065   0.00000   0.01108   0.01238   5.89371
   Y16       -8.51729   0.00039   0.00000  -0.03777  -0.03342  -8.55071
   Z16        3.16281   0.00041   0.00000   0.02095   0.02127   3.18408
   X17       13.87253  -0.00074   0.00000   0.04793   0.04786  13.92039
   Y17       -9.49345   0.00106   0.00000   0.03263   0.02981  -9.46364
   Z17       -2.33704   0.00219   0.00000   0.00423   0.00374  -2.33330
   X18       15.00799   0.00140   0.00000  -0.01148  -0.01197  14.99602
   Y18       -9.10300  -0.00158   0.00000  -0.00856  -0.01405  -9.11705
   Z18       -5.44115  -0.00049   0.00000  -0.02876  -0.02969  -5.47084
   X19       12.72249  -0.00006   0.00000   0.00254   0.00123  12.72372
   Y19      -11.45481  -0.00066   0.00000   0.00580   0.00174 -11.45308
   Z19       -4.79763  -0.00038   0.00000   0.04445   0.04559  -4.75203
   X20        9.15438   0.00047   0.00000   0.03830   0.04053   9.19491
   Y20       -8.36488  -0.00040   0.00000   0.03232   0.03866  -8.32622
   Z20        7.82186   0.00141   0.00000   0.00589   0.00545   7.82730
   X21        6.97855  -0.00571   0.00000  -0.00501  -0.00448   6.97407
   Y21       -6.51874   0.01490   0.00000   0.10128   0.09878  -6.41997
   Z21       -5.77328   0.03583   0.00000  -0.04258  -0.04399  -5.81727
   X22       10.05668   0.02468   0.00000   0.03523   0.03515  10.09184
   Y22       -7.37314  -0.01494   0.00000  -0.06407  -0.06858  -7.44172
   Z22       -6.88276  -0.02990   0.00000   0.00338   0.00214  -6.88062
         Item               Value     Threshold  Converged?
 Maximum Force            0.068061     0.000450     NO 
 RMS     Force            0.016243     0.000300     NO 
 Maximum Displacement     0.176095     0.001800     NO 
 RMS     Displacement     0.036846     0.001200     NO 
 Predicted change in Energy=-8.044227D-03
 Lowest energy point so far.  Saving SCF results.
 GradGradGradGradGradGradGradGradGradGradGradGradGradGradGradGradGradGrad

 Leave Link  103 at Tue Feb 16 04:12:27 2021, MaxMem=    33554432 cpu:         0.0
 (Enter /cm/shared/apps/Gaussian09/g09/l202.exe)
                          Input orientation:                          
 ---------------------------------------------------------------------
 Center     Atomic      Atomic             Coordinates (Angstroms)
 Number     Number       Type             X           Y           Z
 ---------------------------------------------------------------------
      1          6           0        4.456516   -2.958066    0.951577
      2          6           0        5.175079   -3.852136   -0.071656
      3          6           0        5.387954   -3.207985   -1.399168
      4          6           0        5.951377   -4.072402   -2.595068
      5          6           0        4.872417   -4.468457    2.935126
      6          6           0        3.831220   -3.771345    2.086446
      7          1           0        5.158134   -2.204671    1.361947
      8          1           0        3.654638   -2.367754    0.461098
      9          1           0        6.166307   -4.166372    0.330469
     10          1           0        4.604889   -4.800729   -0.204274
     11          1           0        4.263532   -3.112588   -1.947838
     12          1           0        5.612009   -2.131201   -1.413791
     13          6           0        7.042402   -5.026977   -2.279719
     14          1           0        5.632078   -5.047102    2.383268
     15          1           0        3.202820   -3.111853    2.727004
     16          1           0        3.118817   -4.524842    1.684941
     17          1           0        7.366355   -5.007945   -1.234731
     18          1           0        7.935553   -4.824533   -2.895046
     19          1           0        6.733101   -6.060707   -2.514668
     20          8           0        4.865737   -4.406047    4.142031
     21          8           0        3.690517   -3.397300   -3.078367
     22          8           0        5.340370   -3.937990   -3.641070
 ---------------------------------------------------------------------
                    Distance matrix (angstroms):
                    1          2          3          4          5
     1  C    0.000000
     2  C    1.537108   0.000000
     3  C    2.540874   1.490817   0.000000
     4  C    4.006874   2.649294   1.579506   0.000000
     5  C    2.527592   3.084185   4.543201   5.648367   0.000000
     6  C    1.529819   2.543598   3.858795   5.148035   1.513378
     7  H    1.108276   2.183952   2.946729   4.446979   2.771508
     8  H    1.109975   2.190652   2.677865   4.185807   3.466519
     9  H    2.183842   1.114892   2.125085   2.934926   2.923978
    10  H    2.180233   1.114690   2.139579   2.838905   3.168250
    11  H    2.909935   2.213121   1.254776   2.046697   5.104161
    12  H    2.759318   2.225725   1.099945   2.297574   4.992278
    13  C    4.626930   3.121328   2.611762   1.483575   5.675860
    14  H    2.792088   2.768292   4.212929   5.082894   1.102933
    15  H    2.178885   3.502902   4.670047   6.066437   2.161305
    16  H    2.186789   2.786823   4.049052   5.152337   2.154357
    17  H    4.177213   2.736846   2.679732   2.174377   4.888607
    18  H    5.512160   4.066608   3.367661   2.143045   6.595491
    19  H    5.179197   3.643285   3.345412   2.137969   5.974752
    20  O    3.527479   4.261181   5.693237   6.832161   1.208536
    21  O    4.125546   3.383949   2.395170   2.408491   6.221444
    22  O    4.778478   3.574270   2.358239   1.218818   6.614131
                    6          7          8          9         10
     6  C    0.000000
     7  H    2.177170   0.000000
     8  H    2.154763   1.760291   0.000000
     9  H    2.948243   2.434879   3.092018   0.000000
    10  H    2.627850   3.081988   2.695379   1.768159   0.000000
    11  H    4.110511   3.546731   2.593935   3.149873   2.450788
    12  H    4.255930   2.813561   2.720748   2.737081   3.098968
    13  C    5.563425   4.977712   5.104948   2.884660   3.209381
    14  H    2.226825   3.057308   3.844985   2.296751   2.794850
    15  H    1.113611   2.551393   2.427375   3.954446   3.662034
    16  H    1.111972   3.105855   2.537307   3.354146   2.419434
    17  H    5.005654   4.413312   4.860379   2.144343   2.954737
    18  H    6.539879   5.718367   5.968727   3.737292   4.281838
    19  H    5.901893   5.690139   5.654204   3.464760   3.384487
    20  O    2.387153   3.558148   4.378432   4.034468   4.371977
    21  O    5.180251   4.826246   3.686335   4.282659   3.326575
    22  O    5.925347   5.297903   4.704797   4.062936   3.618952
                   11         12         13         14         15
    11  H    0.000000
    12  H    1.751204   0.000000
    13  C    3.390745   3.343857   0.000000
    14  H    4.936976   4.787540   4.871639   0.000000
    15  H    4.793668   4.889995   6.593737   3.124841   0.000000
    16  H    4.062255   4.641947   5.600463   2.660243   1.757694
    17  H    3.705187   3.374233   1.094216   4.012376   6.051903
    18  H    4.160732   3.853182   1.103326   5.763344   7.545825
    19  H    3.887348   4.231997   1.104294   5.121467   6.973790
    20  O    6.254773   6.049711   6.808986   2.022740   2.538214
    21  O    1.299040   2.840062   3.811669   6.026687   5.832809
    22  O    2.169770   2.880806   2.436407   6.132525   6.767864
                   16         17         18         19         20
    16  H    0.000000
    17  H    5.176819   0.000000
    18  H    6.653348   1.764730   0.000000
    19  H    5.749665   1.774136   1.765985   0.000000
    20  O    3.017139   5.960280   7.688911   7.108909   0.000000
    21  O    4.928214   4.416441   4.482290   4.082745   7.384636
    22  O    5.800525   3.322632   2.842091   2.777482   7.811594
                   21         22
    21  O    0.000000
    22  O    1.825101   0.000000
 Symmetry turned off by external request.
 Stoichiometry    C7H12O3
 Framework group  C1[X(C7H12O3)]
 Deg. of freedom    60
 Full point group                 C1      NOp   1
 Rotational constants (GHZ):      2.6795997      0.4855315      0.4309062
 Leave Link  202 at Tue Feb 16 04:12:27 2021, MaxMem=    33554432 cpu:         0.0
 (Enter /cm/shared/apps/Gaussian09/g09/l301.exe)
 Standard basis: VSTO-6G (5D, 7F)
 Ernie: Thresh=  0.10000D-02 Tol=  0.10000D-05 Strict=F.
  NNHCO=     0 NNPyr=     0 NCTC=     0               EPep=         0.000000000
    EC=       250.479351111  ECS=         4.046215391   EG=         0.352953138
   EHC=         0.001086004  EAt=       -66.250074573  AtH=         3.187411664
 EPDDG=         0.000000000  ECC=       254.879605643 EAtT=        69.437486237
    52 basis functions,   312 primitive gaussians,    52 cartesian basis functions
    29 alpha electrons       29 beta electrons
       nuclear repulsion energy       324.3170918805 Hartrees.
 IExCor=    0 DFT=F Ex=HF Corr=None ExCW=0 ScaHFX=  1.000000
 ScaDFX=  1.000000  1.000000  1.000000  1.000000 ScalE2=  1.000000  1.000000
 IRadAn=      0 IRanWt=     -1 IRanGd=            0 ICorTp=0 IEmpDi=  4
 Integral buffers will be    131072 words long.
 Regular integral format.
 Two-electron integral symmetry is turned off.
 Leave Link  301 at Tue Feb 16 04:12:27 2021, MaxMem=    33554432 cpu:         0.0
 (Enter /cm/shared/apps/Gaussian09/g09/l302.exe)
 Do NDO integrals.
 NPDir=0 NMtPBC=     1 NCelOv=     1 NCel=       1 NClECP=     1 NCelD=      1
         NCelK=      1 NCelE2=     1 NClLst=     1 CellRange=     0.0.
 One-electron integrals computed using PRISM.
 NBasis=    52 RedAO= F EigKep=  0.00D+00  NBF=    52
 NBsUse=    52 1.00D-04 EigRej=  0.00D+00 NBFU=    52
 Leave Link  302 at Tue Feb 16 04:12:27 2021, MaxMem=    33554432 cpu:         0.1
 (Enter /cm/shared/apps/Gaussian09/g09/l303.exe)
 DipDrv:  MaxL=1.
 Leave Link  303 at Tue Feb 16 04:12:27 2021, MaxMem=    33554432 cpu:         0.0
 (Enter /cm/shared/apps/Gaussian09/g09/l401.exe)
 Initial guess from the checkpoint file:  "/local/Gau-1432.chk"
 B after Tr=     0.012657    0.014326   -0.008563
         Rot=    1.000000    0.000653   -0.000185    0.000697 Ang=   0.11 deg.
 Guess basis will be translated and rotated to current coordinates.
 JPrj=0 DoOrth=T DoCkMO=T.
 Initial guess <Sx>= 0.0000 <Sy>= 0.0000 <Sz>= 0.0000 <S**2>= 1.0258 S= 0.6295
 Leave Link  401 at Tue Feb 16 04:12:27 2021, MaxMem=    33554432 cpu:         0.1
 (Enter /cm/shared/apps/Gaussian09/g09/l508.exe)
 Direct SCF.
 Tight linear equation convergence will be used.
 UPM6 wavefunction.
 Quadratic Convergence SCF Method.
 Line search only if initial step raises energy.
 Two-electron integral symmetry not used.
 ReadGW:  IGet=1 IStart=       59293 Next=       59293 LGW=           0.
 Keep J ints in memory in canonical form, NReq=905730.
 FoFCou: FMM=F IPFlag=           0 FMFlag=           0 FMFlg1=           0
         NFxFlg=           0 DoJE=F BraDBF=F KetDBF=F FulRan=T
         wScrn=  0.000000 ICntrl=     600 IOpCl=  2 I1Cent=           0 NGrid=           0
         NMat0=    1 NMatS0=    112 NMatT0=    0 NMatD0=    1 NMtDS0=    0 NMtDT0=    0
 Symmetry not used in FoFCou.
 Iteration   1 EE= 0.164005837278296E-01                                Grad=4.998D-02 Max rot=    0.6430 deg.
 Gradient too large for Newton-Raphson -- use scaled steepest descent instead.
 Alpha Gap=     0.324 HL deriv= 3.54D-03
  Beta Gap=     0.308 HL deriv= 1.81D-03
     ILin= 1 X=0.000D+00 Y= 1.640058372783D-02 DE= 0.00D+00 F= -6.08D-03
     ILin= 2 X=3.000D-01 Y= 1.474286302897D-02 DE=-1.66D-03 F= -4.97D-03
     ILin= 3 X=6.000D-01 Y= 1.341705527716D-02 DE=-2.98D-03 F= -3.87D-03
     ILin= 4 X=1.200D+00 Y= 1.176110322831D-02 DE=-4.64D-03 F= -1.65D-03
     ILin= 5 X=2.400D+00 Y= 1.242867690951D-02 DE=-3.97D-03 F=  2.76D-03
     An  expanding polynomial of degree  5 produced  1.6488
 Iteration   2 EE= 0.113900115203478E-01 Delta-E=       -0.005010572207 Grad=1.179D-02 Max rot=    0.1825 deg.
 Gradient too large for Newton-Raphson -- use scaled steepest descent instead.
 Alpha Gap=     0.326 HL deriv= 3.23D-03
  Beta Gap=     0.307 HL deriv= 8.64D-04
     ILin= 1 X=0.000D+00 Y= 1.139001152035D-02 DE= 0.00D+00 F= -4.16D-04
     ILin= 2 X=7.000D-01 Y= 1.114802701363D-02 DE=-2.42D-04 F= -2.76D-04
     ILin= 3 X=1.400D+00 Y= 1.100415780957D-02 DE=-3.86D-04 F= -1.35D-04
     ILin= 4 X=2.800D+00 Y= 1.101204090008D-02 DE=-3.78D-04 F=  1.47D-04
     An  expanding polynomial of degree  4 produced  2.0724
 Iteration   3 EE= 0.109586479087511E-01 Delta-E=       -0.000431363612 Grad=7.881D-03 Max rot=    0.0985 deg.
 QCNR:  CnvC1=3.65D-09 CnvC2=3.65D-08
 LinEq1:  Iter=  0 NonCon=     1 RMS=3.21D-04 Max=3.14D-03 NDo=     1
 AX will form     1 AO Fock derivatives at one time.
 LinEq1:  Iter=  1 NonCon=     1 RMS=1.30D-04 Max=1.73D-03 NDo=     1
 LinEq1:  Iter=  2 NonCon=     1 RMS=1.91D-05 Max=2.23D-04 NDo=     1
 LinEq1:  Iter=  3 NonCon=     1 RMS=4.70D-06 Max=8.17D-05 NDo=     1
 LinEq1:  Iter=  4 NonCon=     1 RMS=6.69D-07 Max=5.74D-06 NDo=     1
 LinEq1:  Iter=  5 NonCon=     1 RMS=1.46D-07 Max=1.69D-06 NDo=     1
 LinEq1:  Iter=  6 NonCon=     1 RMS=2.85D-08 Max=2.68D-07 NDo=     1
 LinEq1:  Iter=  7 NonCon=     1 RMS=7.71D-09 Max=1.00D-07 NDo=     1
 LinEq1:  Iter=  8 NonCon=     0 RMS=1.63D-09 Max=1.68D-08 NDo=     1
 Linear equations converged to 3.652D-09 3.652D-08 after     8 iterations.
 Angle between quadratic step and gradient=  53.09 degrees.
     ILin= 1 X=0.000D+00 Y= 1.095864790875D-02 DE= 0.00D+00 F= -4.76D-04
     ILin= 2 X=1.000D+00 Y= 1.072287201765D-02 DE=-2.36D-04 F=  6.28D-06
     Accept linear search using points  1 and  2.
     An  expanding polynomial of degree  2 produced  0.9871
     Minimum is close to point  2 DX= -1.29D-02 DF= -4.04D-08 DXR=  1.30D-02 DFR=  1.71D-04 which will be used.
 Iteration   4 EE= 0.107228720176522E-01 Delta-E=       -0.000235775891 Grad=1.588D-04 Max rot=    0.0019 deg.
 QCNR:  CnvC1=1.59D-09 CnvC2=1.59D-08
 LinEq1:  Iter=  0 NonCon=     1 RMS=7.14D-06 Max=6.85D-05 NDo=     1
 LinEq1:  Iter=  1 NonCon=     1 RMS=1.30D-06 Max=1.98D-05 NDo=     1
 LinEq1:  Iter=  2 NonCon=     1 RMS=4.19D-07 Max=5.16D-06 NDo=     1
 LinEq1:  Iter=  3 NonCon=     1 RMS=8.73D-08 Max=1.13D-06 NDo=     1
 LinEq1:  Iter=  4 NonCon=     1 RMS=2.20D-08 Max=2.40D-07 NDo=     1
 LinEq1:  Iter=  5 NonCon=     1 RMS=4.86D-09 Max=4.34D-08 NDo=     1
 LinEq1:  Iter=  6 NonCon=     0 RMS=1.06D-09 Max=1.29D-08 NDo=     1
 Linear equations converged to 1.588D-09 1.588D-08 after     6 iterations.
 Angle between quadratic step and gradient=  43.12 degrees.
     ILin= 1 X=0.000D+00 Y= 1.072287201765D-02 DE= 0.00D+00 F= -2.32D-07
     ILin= 2 X=1.000D+00 Y= 1.072275610119D-02 DE=-1.16D-07 F=  2.61D-10
     Accept linear search using points  1 and  2.
     An  expanding polynomial of degree  2 produced  0.9989
     Minimum is close to point  2 DX= -1.12D-03 DF= -1.47D-13 DXR=  1.12D-03 DFR=  1.26D-06 which will be used.
 Iteration   5 EE= 0.107227561011882E-01 Delta-E=       -0.000000115916 Grad=3.982D-06 Max rot=    0.0000 deg.
 QCNR:  CnvC1=3.98D-11 CnvC2=3.98D-10
 LinEq1:  Iter=  0 NonCon=     1 RMS=1.62D-07 Max=1.96D-06 NDo=     1
 LinEq1:  Iter=  1 NonCon=     1 RMS=5.25D-08 Max=7.89D-07 NDo=     1
 LinEq1:  Iter=  2 NonCon=     1 RMS=1.15D-08 Max=2.02D-07 NDo=     1
 LinEq1:  Iter=  3 NonCon=     1 RMS=2.70D-09 Max=3.20D-08 NDo=     1
 LinEq1:  Iter=  4 NonCon=     1 RMS=5.60D-10 Max=5.18D-09 NDo=     1
 LinEq1:  Iter=  5 NonCon=     1 RMS=1.58D-10 Max=1.25D-09 NDo=     1
 LinEq1:  Iter=  6 NonCon=     0 RMS=3.69D-11 Max=3.33D-10 NDo=     1
 Linear equations converged to 3.982D-11 3.982D-10 after     6 iterations.
 Angle between quadratic step and gradient=  55.95 degrees.
     ILin= 1 X=0.000D+00 Y= 1.072275610119D-02 DE= 0.00D+00 F= -9.70D-11
     ILin= 2 X=1.000D+00 Y= 1.072275605156D-02 DE=-4.96D-11
 Iteration   6 EE= 0.107227560515639E-01 Delta-E=       -0.000000000050 Grad=9.585D-08 Max rot=    0.0000 deg.
 Rotation gradient small -- convergence achieved.
 SCF Done:  E(UPM6) =  0.107227560516E-01 a.u. after    6 cycles
            Convg  =    0.9585D-07                    33 Fock formations.
              S**2 =  1.0249                  -V/T =  1.0003
 <Sx>= 0.0000 <Sy>= 0.0000 <Sz>= 0.0000 <S**2>= 1.0249 S= 0.6291
 <L.S>= 0.000000000000E+00
 Annihilation of the first spin contaminant:
 S**2 before annihilation     1.0249,   after     0.2081
 Leave Link  508 at Tue Feb 16 04:12:27 2021, MaxMem=    33554432 cpu:         0.1
 (Enter /cm/shared/apps/Gaussian09/g09/l801.exe)
 Range of M.O.s used for correlation:     1    52
 NBasis=    52 NAE=    29 NBE=    29 NFC=     0 NFV=     0
 NROrb=     52 NOA=    29 NOB=    29 NVA=    23 NVB=    23
 Leave Link  801 at Tue Feb 16 04:12:27 2021, MaxMem=    33554432 cpu:         0.0
 (Enter /cm/shared/apps/Gaussian09/g09/l1101.exe)
 Using compressed storage, NAtomX=    22.
 Will process     23 centers per pass.
 Leave Link 1101 at Tue Feb 16 04:12:27 2021, MaxMem=    33554432 cpu:         0.1
 (Enter /cm/shared/apps/Gaussian09/g09/l1102.exe)
 Symmetrizing basis deriv contribution to polar:
 IMax=3 JMax=2 DiffMx= 0.00D+00
 Leave Link 1102 at Tue Feb 16 04:12:27 2021, MaxMem=    33554432 cpu:         0.0
 (Enter /cm/shared/apps/Gaussian09/g09/l1110.exe)
 Forming Gx(P) for the SCF density, NAtomX=    22.
 Integral derivatives from FoFJK, PRISM(SPDF).
 Do as many integral derivatives as possible in FoFJK.
 G2DrvN: MDV=      33495261.
 G2DrvN: will do    23 centers at a time, making    1 passes.
 Calling FoFCou, ICntrl=  3107 FMM=F I1Cent=   0 AccDes= 0.00D+00.
 FoFJK:  IHMeth=40 ICntrl=    3107 DoSepK=F KAlg= 0 I1Cent=   0 FoldK=F
 IRaf=         0 NMat=   1 IRICut=       1 DoRegI=T DoRafI=F ISym2E= 0.
 FoFCou: FMM=F IPFlag=           0 FMFlag=      100000 FMFlg1=           0
         NFxFlg=           0 DoJE=F BraDBF=F KetDBF=F FulRan=T
         wScrn=  0.000000 ICntrl=    3107 IOpCl=  1 I1Cent=           0 NGrid=           0
         NMat0=    1 NMatS0=      1 NMatT0=    0 NMatD0=    1 NMtDS0=    0 NMtDT0=    0
 Symmetry not used in FoFCou.
 End of G2Drv F.D. properties file   721 does not exist.
 End of G2Drv F.D. properties file   722 does not exist.
 End of G2Drv F.D. properties file   788 does not exist.
 Leave Link 1110 at Tue Feb 16 04:12:27 2021, MaxMem=    33554432 cpu:         0.0
 (Enter /cm/shared/apps/Gaussian09/g09/l1002.exe)
 Minotr:  UHF open shell wavefunction.
          IDoAtm=1111111111111111111111
          Direct CPHF calculation.
          Differentiating once with respect to electric field.
                with respect to dipole field.
          Differentiating once with respect to nuclear coordinates.
          Electric field/nuclear overlap derivatives assumed to be zero.
          Requested convergence is 1.0D-08 RMS, and 1.0D-07 maximum.
          NewPWx=T KeepS1=F KeepF1=F KeepIn=T MapXYZ=F SortEE=F KeepMc=T.
          MDV=      33495213 using IRadAn=       2.
 Keep J ints in memory in canonical form, NReq=888555.
 FoFCou: FMM=F IPFlag=           0 FMFlag=           0 FMFlg1=           0
         NFxFlg=           0 DoJE=F BraDBF=F KetDBF=F FulRan=T
[...]
 072,0.00004191,0.00025078,-0.00003978,0.00004840,0.00010937,-0.0000378
 6,-0.00001597,-0.00042664,0.00039358,-0.00058973,-0.00072604,0.0012799
 3,0.00174816,0.00258615,0.00422524,0.10711602,0.17403326,0.00042256,0.
 00030365,-0.00038305,0.01385390,0.01876338,-0.00053633,-0.02154448,-0.
 03240570,-0.03805722,-0.00813331,-0.02296847,-0.00869219,0.00003679,0.
 00020537,-0.00005128,-0.00008361,-0.00019241,-0.00001794,0.00031543,-0
 .00014919,-0.00057015,0.00013983,0.00004192,0.00002301,0.00030830,0.00
 048450,0.00015767,0.00068377,0.00132233,-0.00214279,-0.00961154,-0.001
 88000,-0.00278888,0.02098458,0.03544718,0.05321923,0.00024598,0.000213
 02,0.00000573,-0.00019331,0.00050483,0.00094285,-0.00588302,0.02185451
 ,0.00376981,-0.15649613,0.07595225,-0.00723338,-0.00081054,0.00056828,
 -0.00078841,0.00017313,0.00003654,0.00065460,-0.00019404,-0.00007185,-
 0.00008781,0.00007193,-0.00003708,-0.00006979,-0.00066701,0.00005686,-
 0.00003973,0.00016102,-0.00006353,-0.00035639,0.00053102,-0.00002991,0
 .00087662,-0.00217754,0.00034735,0.00077649,0.43950025,0.00003890,0.00
 038255,-0.00032908,0.00089671,-0.00018248,-0.00054380,0.02356490,-0.01
 137927,-0.00701018,0.07073401,-0.14435601,0.00967458,0.00053066,-0.001
 00499,0.00060083,-0.00001034,0.00038953,-0.00052752,-0.00001095,0.0000
 1495,0.00018330,-0.00014059,-0.00003946,0.00010898,0.00013013,-0.00072
 640,-0.00012438,0.00007787,-0.00076220,-0.00012005,-0.00005100,-0.0008
 5577,-0.00052423,-0.00027177,0.00088637,0.00082821,-0.04511764,0.42290
 226,0.00026371,-0.00040940,0.00029335,0.00265206,-0.00126373,-0.000319
 91,0.01002688,-0.01367835,0.00227742,-0.01122171,0.01479054,-0.0598358
 7,-0.00029553,0.00016575,0.00029796,0.00046367,-0.00019848,-0.00026355
 ,-0.00002255,0.00012788,-0.00005287,-0.00013910,0.00005901,-0.00022171
 ,-0.00070303,0.00031195,0.00011020,-0.00061423,0.00009996,-0.00010348,
 0.00206110,-0.00231820,0.00251978,0.00024015,-0.00005965,-0.00058271,0
 .01822439,-0.00456077,0.41957397,-0.00082679,0.00014626,-0.00064955,0.
 00008112,-0.00006214,0.00004610,0.00004246,-0.00004183,-0.00002037,-0.
 00004142,0.00005863,0.00002697,-0.12403198,-0.07903156,-0.00147191,-0.
 02432806,-0.01444011,-0.01560516,-0.00010768,0.00024297,-0.00034296,0.
 00002271,-0.00006236,0.00003873,-0.00003362,0.00000759,-0.00013202,-0.
 00002709,0.00001265,0.00002396,-0.00002261,0.00000621,-0.00000408,0.00
 000397,0.00001155,0.00000894,0.00002383,-0.00006217,-0.00000285,0.1442
 8883,0.00066047,0.00015052,0.00009101,-0.00002223,-0.00005060,0.000024
 14,-0.00012773,-0.00001911,0.00009212,0.00007062,-0.00006129,-0.000086
 28,-0.07562121,-0.10870523,-0.01711747,-0.00282737,0.00577857,0.003157
 18,-0.00005982,-0.00000108,-0.00001239,-0.00008702,-0.00002147,0.00003
 233,0.00006178,0.00000510,-0.00013518,-0.00001294,-0.00002103,-0.00006
 137,0.00003793,0.00000077,0.00003944,0.00004272,0.00003473,0.00002059,
 -0.00007985,0.00001375,0.00004166,0.10389445,0.15105139,-0.00010905,-0
 .00037221,-0.00005639,0.00008343,-0.00004368,-0.00008029,0.00007137,-0
 .00002753,-0.00000689,-0.00006569,0.00005441,-0.00003787,-0.00375388,-
 0.01920519,-0.04802449,-0.01986609,-0.00226139,0.00557459,-0.00009266,
 0.00040111,-0.00035459,-0.00002108,-0.00012718,0.00021380,-0.00002662,
 -0.00004744,-0.00022267,-0.00002507,0.00003214,0.00000664,-0.00001831,
 -0.00000423,0.00001760,-0.00002317,-0.00000319,-0.00001661,0.00003732,
 -0.00003895,0.00004566,0.02088605,-0.00346562,0.03365134,-0.00623896,0
 .00155478,0.01542505,-0.00003338,-0.00042813,0.00043969,0.00005304,-0.
 00004888,-0.00006860,0.00000629,0.00007361,0.00024762,-0.02957163,0.02
 274255,0.00316810,-0.09862368,0.06104883,0.06266372,-0.00029815,-0.000
 34400,0.00041292,0.00079050,-0.00005934,-0.00015599,-0.00001543,0.0000
 0333,0.00001997,0.00009732,0.00004396,0.00003184,-0.00001846,0.0000422
 7,-0.00009317,-0.00001504,0.00000403,0.00003480,0.00003687,-0.00005030
 ,-0.00012808,0.00002738,-0.00098829,-0.00156409,0.12789829,-0.00476663
 ,0.00675475,0.00504068,-0.00039256,-0.00066080,0.00128537,-0.00022697,
 0.00008674,0.00031121,-0.00000800,-0.00005499,-0.00010680,0.01593597,-
 0.00557678,0.00024621,0.06391558,-0.08831364,-0.05698096,-0.00034546,0
 .00017247,0.00054053,-0.00020399,0.00056186,0.00039826,0.00005802,-0.0
 0004669,-0.00002995,0.00007160,-0.00003634,-0.00008629,-0.00000129,0.0
 0004580,0.00003384,0.00002982,0.00006299,0.00001067,-0.00004095,-0.000
 02190,0.00005664,-0.00031748,0.00028003,-0.00011049,-0.07959579,0.1039
 8272,0.01935507,-0.00550111,-0.02630428,0.00075109,0.00115226,-0.00204
 856,0.00010777,-0.00016986,-0.00029876,0.00007946,0.00003767,-0.000088
 49,-0.00372320,0.00264018,0.01120468,0.05773446,-0.05301763,-0.0855467
 8,0.00045796,0.00028926,-0.00001364,0.00007059,0.00007224,-0.00097234,
 -0.00005772,0.00006700,0.00001032,0.00002991,0.00006390,0.00001587,0.0
 0009305,-0.00004179,0.00004624,0.00002169,-0.00001445,-0.00001015,-0.0
 0006453,0.00001130,0.00006892,-0.00008496,-0.00034029,-0.00125557,-0.0
 7701573,0.06321864,0.11134882,-0.00435670,-0.01316807,0.00565636,-0.00
 084034,-0.00026547,0.00065263,0.00016527,-0.00005196,-0.00031938,0.000
 02837,0.00015091,0.00035688,-0.02636184,-0.01640293,-0.01918894,-0.080
 04115,-0.07431701,-0.01965544,0.00001093,-0.00064787,0.00055038,0.0005
 0878,0.00006363,-0.00001135,-0.00025047,-0.00004682,0.00020430,0.00015
 624,0.00011660,0.00053683,0.00000961,0.00004959,-0.00014433,-0.0000268
 1,-0.00002629,0.00000298,0.00005010,-0.00003691,-0.00018977,-0.0021543
 0,0.00033795,-0.00097832,0.00629062,0.00650268,0.00276842,0.10648796,-
 0.01308015,-0.01966802,0.00979205,-0.00033596,0.00005711,0.00016498,0.
 00017452,-0.00027781,-0.00024843,-0.00005403,0.00023478,0.00001112,-0.
 00698114,0.00869106,-0.00542633,-0.07651212,-0.15509822,-0.03043947,-0
 .00051982,-0.00073325,0.00125942,0.00011263,-0.00054703,0.00050986,0.0
 0005558,0.00014120,-0.00003685,0.00003629,0.00030851,0.00000880,-0.000
 04456,0.00006146,-0.00000077,-0.00003405,0.00001472,0.00003553,-0.0000
 1240,-0.00019536,0.00002055,0.00119091,-0.00045568,0.00073330,-0.00267
 879,-0.01784563,-0.01045121,0.09852720,0.18815729,0.01169950,0.0207661
 6,-0.00094875,0.00061714,0.00030007,-0.00050573,-0.00017487,-0.0001276
 5,0.00005991,0.00011259,-0.00004625,-0.00014887,-0.01736560,-0.0117300
 5,-0.00522528,-0.02158496,-0.03148682,-0.04387151,0.00057153,0.0013890
 8,-0.00222803,0.00026062,0.00066225,-0.00003685,0.00023370,0.00005078,
 -0.00002909,0.00032350,-0.00011474,-0.00073541,0.00005995,0.00005774,0
 .00009081,0.00000729,0.00004697,0.00004811,-0.00012804,-0.00001224,0.0
 0008280,-0.00155013,0.00066097,-0.00001671,-0.00216794,-0.01399066,-0.
 00263072,0.02805380,0.03330830,0.05616968,-0.00002182,-0.00005226,-0.0
 0002646,0.00004791,-0.00017001,-0.00005455,0.00021032,0.00033534,0.000
 06612,-0.02966993,0.00280717,-0.01896202,0.00021342,-0.00012277,0.0002
 4840,-0.00000866,-0.00004880,-0.00021492,0.00004749,0.00003830,0.00002
 080,-0.00002615,0.00001565,-0.00000339,-0.00015147,0.00009127,0.000438
 42,-0.00013496,0.00000255,0.00004899,0.00013866,-0.00009397,0.00026429
 ,0.00000349,0.00048205,0.00014865,-0.13335936,-0.05135485,-0.07466496,
 -0.00000147,0.00002803,-0.00000555,-0.00001664,0.00001799,0.00001950,-
 0.00003122,0.00000815,0.00004067,0.16571793,-0.00004045,-0.00005719,0.
 00002017,-0.00010331,-0.00006918,-0.00000809,-0.00042427,-0.00145006,-
 0.00009085,0.01445168,0.00824249,0.00804267,-0.00002166,0.00017026,-0.
 00005143,-0.00001716,-0.00008414,0.00002495,0.00004332,0.00001185,-0.0
 0001760,0.00001919,0.00000859,0.00000221,0.00004692,0.00021256,-0.0000
 1249,-0.00002639,0.00007990,0.00003853,-0.00010261,0.00021367,-0.00030
 599,0.00067428,-0.00025504,-0.00017267,-0.05245129,-0.06010868,-0.0416
 8617,0.00001574,0.00000987,0.00000155,0.00000798,0.00001053,0.00000338
 ,0.00000063,0.00003044,0.00001053,0.05789459,0.06862615,-0.00010088,0.
 00008746,-0.00012138,-0.00033522,-0.00002774,-0.00004669,0.00040616,-0
 .00061123,-0.00041957,-0.01607925,0.00492171,-0.00378191,0.00022683,-0
 .00008313,0.00000389,-0.00015259,0.00003261,-0.00002836,0.00004651,-0.
 00002859,0.00003063,0.00001229,-0.00000933,0.00005450,0.00047323,-0.00
 009567,-0.00021132,0.00010658,-0.00000381,0.00004107,-0.00028495,0.000
 15620,-0.00044186,0.00026666,-0.00003424,0.00019435,-0.07523644,-0.041
 60207,-0.09145793,0.00000004,-0.00000202,-0.00002009,0.00003079,-0.000
 00819,-0.00001555,0.00004209,0.00000103,-0.00000727,0.09734030,0.04758
 950,0.10453767,-0.00002070,-0.00002819,-0.00001556,0.00001716,-0.00009
 066,-0.00021112,-0.00065739,0.00131213,-0.00041027,-0.01775338,0.01982
 392,0.01642120,0.00009460,-0.00005647,0.00012045,-0.00001206,-0.000031
 87,-0.00010036,0.00002065,0.00001707,0.00000719,-0.00000136,0.00001108
 ,0.00001204,0.00002886,0.00003857,0.00005796,-0.00002507,0.00003983,0.
 00006692,-0.00015648,0.00030526,-0.00009750,-0.00001709,0.00016608,0.0
 0006427,-0.06618038,0.02448536,0.06078417,-0.00000309,0.00001350,-0.00
 000190,-0.00000682,0.00001002,0.00001324,-0.00001011,0.00001134,0.0000
 2609,0.00607944,-0.00444078,-0.01151100,0.08026694,-0.00001548,-0.0000
 2254,0.00000306,-0.00005978,-0.00005177,0.00011058,0.00107828,-0.00099
 103,0.00018445,0.02163401,-0.01313554,-0.01385663,-0.00004575,0.000128
 11,-0.00008813,-0.00001484,-0.00004962,0.00006173,0.00000671,0.0000022
 5,-0.00001692,0.00001278,0.00001012,-0.00001030,0.00001067,0.00003516,
 -0.00001459,0.00002894,0.00006179,0.00001381,0.00028544,-0.00023279,0.
 00006998,0.00014640,-0.00002565,-0.00005895,0.02380798,-0.05474848,-0.
 05055217,0.00000979,-0.00000188,0.00000313,0.00001010,0.00000585,-0.00
 000467,0.00001217,0.00002468,-0.00000245,0.00046811,-0.00137843,-0.012
 75454,-0.03971436,0.06585008,-0.00001304,0.00002299,-0.00000283,-0.000
 06057,0.00006193,-0.00009105,-0.00084041,0.00107285,-0.00019873,0.0084
 8918,-0.00758525,0.00723290,-0.00000897,0.00003216,-0.00010696,-0.0000
 6689,0.00002375,0.00010808,-0.00000137,-0.00002290,-0.00001148,0.00003
 033,-0.00001390,0.00000256,0.00006013,-0.00004561,-0.00006576,0.000069
 15,0.00000061,-0.00001013,-0.00007704,0.00011664,-0.00020417,-0.000085
 68,-0.00009377,-0.00000002,0.06248065,-0.05235358,-0.16745797,0.000003
 87,-0.00001159,-0.00000490,0.00002529,-0.00001246,-0.00001778,0.000034
 51,0.00000170,-0.00002142,-0.00026312,-0.00923444,-0.01689128,-0.07899
 230,0.06520008,0.19457800,-0.00007334,-0.00014168,0.00006040,-0.000202
 35,0.00002263,0.00003294,-0.00170989,-0.00060432,0.00037160,0.00838541
 ,0.01653956,-0.00794634,0.00014891,-0.00002260,0.00015343,-0.00003546,
 -0.00009378,-0.00011021,0.00004439,0.00001410,-0.00001938,-0.00000018,
 0.00002808,-0.00002068,0.00019698,0.00018925,0.00029863,-0.00024645,0.
 00028212,0.00021556,0.00010925,0.00005486,0.00016019,0.00021246,-0.000
 13084,-0.00017371,-0.05594635,-0.05207740,0.03246359,-0.00000273,0.000
 01903,-0.00000325,-0.00000618,0.00001638,0.00001670,-0.00001432,0.0000
 4883,0.00005141,-0.00873239,-0.01694039,0.00396440,-0.00224765,-0.0063
 0599,0.00989985,0.06372519,-0.00001538,0.00001163,-0.00001093,0.000123
 32,-0.00044051,-0.00023982,0.00048000,0.00078085,-0.00049737,0.0065328
 3,-0.03048976,0.01839175,-0.00012691,0.00033199,-0.00021592,-0.0000261
 1,-0.00012705,0.00015200,-0.00000720,-0.00000941,-0.00003080,0.0000393
 8,0.00001446,-0.00000118,0.00019767,-0.00005001,-0.00048712,0.00021684
 ,0.00017563,-0.00008058,0.00008760,0.00005459,-0.00020402,-0.00008165,
 -0.00007586,0.00009897,-0.05360698,-0.14930100,0.07085841,0.00002131,-
 0.00000780,0.00001192,0.00002297,0.00000985,-0.00000837,0.00002358,0.0
 0006811,-0.00000463,-0.01223202,-0.01089770,0.00267674,-0.00109611,0.0
 0474429,0.00239716,0.05895002,0.18507892,-0.00004947,0.00014114,-0.000
 14300,-0.00023268,0.00007231,-0.00008548,0.00045382,-0.00044623,-0.000
 48502,-0.00499294,0.01516856,-0.00247188,0.00015860,-0.00020437,-0.000
 04552,-0.00014894,0.00013313,0.00002385,0.00000467,-0.00003420,0.00003
 973,0.00001417,-0.00001912,0.00006722,0.00028290,-0.00048391,-0.000423
 39,0.00031827,-0.00013902,0.00006153,-0.00027942,0.00015856,-0.0004263
 6,0.00016184,0.00001139,0.00005999,0.03332453,0.07114205,-0.07515657,-
 0.00001154,-0.00001692,-0.00002112,0.00003281,-0.00001887,-0.00002314,
 0.00006589,-0.00003599,-0.00003180,-0.00412865,-0.00645809,0.00690382,
 0.01269093,0.01320973,-0.01504688,-0.03787450,-0.09133981,0.08576409,-
 0.00330708,0.00116300,-0.00158633,0.00020822,-0.00001085,0.00022724,0.
 00050691,-0.00012879,-0.00026747,-0.00047021,0.00038727,-0.00001879,-0
 .05910741,0.05052249,-0.02600319,-0.00546033,0.03238055,-0.02813897,-0
 .00035853,-0.00033226,-0.00008678,0.00038915,0.00023674,-0.00057848,-0
 .00033703,0.00013389,-0.00020814,-0.00009786,0.00006263,0.00010751,-0.
 00013291,0.00001831,-0.00000233,-0.00015547,-0.00002213,-0.00002300,0.
 00040011,-0.00022511,0.00017598,0.00707107,-0.02530029,0.00543859,-0.0
 0032191,-0.00066718,-0.00051785,0.00044846,0.00005511,0.00096080,-0.00
 010795,0.00001352,-0.00011786,-0.00004842,0.00001719,-0.00000830,-0.00
 008756,0.00005218,-0.00008421,0.06073491,0.00364370,0.00064953,-0.0001
 4377,0.00002460,0.00065185,0.00002416,-0.00064943,0.00058853,0.0006723
 7,0.00072484,-0.00093181,-0.00047041,0.03626608,-0.61684010,0.28157937
 ,0.03258284,-0.02242518,0.03530718,-0.00002461,0.00057500,-0.00055426,
 -0.00053778,-0.00005230,0.00016938,0.00021738,-0.00057438,0.00019824,-
 0.00006078,-0.00043684,-0.00002520,0.00024510,-0.00017750,0.00022829,0
 .00014099,-0.00007845,-0.00014259,-0.00046109,0.00081905,-0.00004717,-
 0.01158246,-0.04800064,0.02448704,-0.00132134,0.00058785,0.00199617,-0
 .00074982,-0.00285578,0.00027802,0.00010490,-0.00013727,0.00003648,0.0
 0004982,-0.00011218,-0.00003971,0.00002320,-0.00028589,0.00012851,-0.0
 5823245,0.68863651,-0.00121973,0.00015838,0.00019686,0.00005825,-0.000
 06368,-0.00015472,0.00049451,-0.00013055,-0.00043864,-0.00036315,0.000
 38047,0.00060395,-0.01853341,0.28973655,-0.19978857,-0.03017315,0.0360
 8440,-0.01384930,-0.00008732,-0.00032073,0.00015336,0.00026006,-0.0001
 3242,-0.00000864,-0.00022389,-0.00000850,-0.00004868,0.00005540,0.0000
 7571,0.00022628,-0.00020356,0.00007964,-0.00025923,-0.00012877,-0.0000
 3782,0.00003033,0.00040061,-0.00020326,-0.00027748,-0.00115827,0.01708
 646,0.01060587,-0.00132458,0.00014608,-0.00340621,0.00160157,0.0007564
 2,-0.00004078,-0.00013594,0.00000414,0.00003800,-0.00007419,0.00003992
 ,0.00008209,-0.00009468,0.00007407,0.00009307,0.05064249,-0.34356572,0
 .20627534,-0.00006026,0.00007958,0.00012363,0.00055825,0.00102806,0.00
 006385,-0.01535105,0.00690093,-0.00456836,-0.02029411,0.00878466,-0.04
 245747,0.00016008,-0.00030513,0.00014709,-0.00010913,0.00021626,-0.000
 02270,0.00001668,-0.00007449,0.00008684,0.00000958,-0.00012167,0.00009
 922,0.00008185,-0.00021398,-0.00003165,0.00010226,-0.00017680,-0.00016
 227,0.00922280,-0.00313716,-0.00313327,-0.00029963,-0.00001187,0.00031
 676,0.00302153,0.00081864,0.00560071,-0.00000961,0.00000271,-0.0000130
 6,0.00000194,-0.00004216,0.00001210,0.00000606,-0.00005900,-0.00003017
 ,-0.00000719,-0.00066270,-0.00040973,-0.00090870,0.00052612,-0.0002425
 3,-0.00000787,0.00031640,-0.00065668,-0.00006875,0.00024209,-0.0000643
 8,0.02303798,0.00025213,0.00006593,-0.00012003,0.00141509,-0.00123414,
 0.00055788,0.00512262,-0.00526611,0.00155756,0.01934549,-0.00710364,0.
 04345399,-0.00031914,0.00033467,-0.00027613,0.00024171,-0.00012258,0.0
 0013167,-0.00007756,-0.00000138,-0.00005105,-0.00012526,0.00003154,-0.
 00021907,-0.00030360,0.00003826,0.00029454,-0.00027863,0.00023321,-0.0
 0013656,-0.00205110,0.00110892,0.00637453,-0.00063820,0.00011731,-0.00
 075799,-0.00140584,0.00145554,-0.00647751,0.00001401,-0.00002695,0.000
 02333,-0.00002282,0.00001357,-0.00004076,-0.00004357,0.00002872,-0.000
 03251,0.00011249,0.00040233,0.00057646,0.00087475,-0.00078384,0.000239
 32,-0.00047082,-0.00024302,0.00063143,0.00015344,-0.00027036,0.0001404
 9,-0.01981817,0.02059901,-0.00003669,0.00019004,-0.00060954,0.00756261
 ,-0.00490529,0.00429362,-0.08092407,0.04546271,-0.04550801,-0.00097986
 ,0.00760374,0.02522229,-0.00029579,0.00040518,-0.00063213,-0.00026115,
 -0.00007063,0.00059767,-0.00002837,-0.00015771,-0.00013122,0.00030263,
 -0.00002825,-0.00001408,-0.00121817,-0.00031058,0.00139126,0.00032023,
 0.00085739,-0.00015249,0.06431545,-0.03524397,0.03172072,0.00463657,-0
 .00407796,0.00233675,-0.00153864,-0.00032157,-0.00548774,0.00001862,-0
 .00005285,-0.00000527,0.00013591,-0.00005192,-0.00007054,0.00017474,0.
 00006705,-0.00005817,-0.00034404,0.00065394,0.00054506,0.00047417,-0.0
 0040237,0.00013991,-0.00033932,0.00007930,0.00059467,0.00010947,-0.000
 37226,0.00032031,0.01395620,-0.01255294,0.00481682,0.00046873,0.000071
 09,-0.00031708,0.00363087,-0.00341779,0.00135068,0.01365331,0.00503141
 ,-0.01026270,-0.12661263,0.02696508,-0.16308153,-0.00055436,0.00035726
 ,-0.00026875,0.00042191,-0.00037673,0.00020882,-0.00011327,0.00006338,
 -0.00017795,-0.00017252,0.00015545,-0.00046026,-0.00069265,0.00013582,
 0.00084715,-0.00052746,0.00054563,-0.00016505,0.00143597,-0.00254477,0
 .00934634,-0.00033043,0.00048981,0.00144710,-0.02224882,0.02808869,-0.
 04493670,0.00004189,-0.00000543,0.00003740,-0.00004778,0.00006078,-0.0
 0007155,-0.00008653,0.00007542,-0.00002230,-0.00021095,0.00209914,0.00
 130131,0.00157567,-0.00189407,-0.00040830,-0.00353130,0.00014440,0.000
 96358,0.00026096,-0.00027153,0.00005723,0.00092202,-0.00208883,-0.0064
 3428,0.13263759,-0.00020633,0.00046412,-0.00028951,-0.00158689,-0.0001
 4173,-0.00279129,0.00598054,0.01276410,-0.01786030,0.01556065,-0.06420
 926,0.02792323,0.00058826,-0.00054695,0.00047605,-0.00012342,0.0002569
 2,-0.00051729,0.00010549,0.00000307,0.00018580,-0.00000180,-0.00011074
 ,0.00031036,0.00071831,-0.00016103,-0.00057061,0.00007212,-0.00075279,
 -0.00003415,-0.00300133,0.00087873,-0.00817607,-0.00048940,0.00062636,
 0.00114737,0.03000922,-0.00315213,0.03468120,-0.00004269,0.00002476,-0
 .00003631,-0.00001164,-0.00002935,0.00003688,-0.00002062,-0.00012859,0
 .00001983,0.00168598,-0.00359618,-0.00082863,-0.00170127,0.00069072,0.
 00023130,0.00061020,0.00064218,-0.00159178,-0.00024994,0.00044060,-0.0
 0017229,0.00571869,-0.00936028,0.00325086,-0.05379107,0.06541863,0.000
 43207,0.00028550,-0.00066195,0.00314526,-0.00446047,0.00040666,-0.0067
 8148,-0.02251850,-0.08039433,-0.20766601,0.07367586,-0.55863392,0.0001
 3139,-0.00030838,0.00057307,0.00053664,-0.00024186,-0.00072864,-0.0000
 1759,0.00019354,0.00003557,-0.00034025,0.00018186,-0.00025354,-0.00030
 143,-0.00023650,0.00086104,-0.00060188,-0.00006765,0.00001762,0.003304
 97,-0.00271657,0.00672067,0.00263194,-0.00008841,-0.00223389,-0.035972
 10,0.02573051,-0.02400090,-0.00001789,0.00005647,0.00001530,-0.0001524
 9,0.00010624,0.00001628,-0.00021193,-0.00003346,0.00008231,0.00015982,
 0.00164737,0.00108975,0.00069015,-0.00114566,-0.00204173,-0.00111331,-
 0.00160936,0.00075082,-0.00001403,0.00029867,-0.00036505,0.03139284,-0
 .03334668,-0.01911260,0.21081930,-0.03534432,0.67774443\\-0.00000020,0
 .00000001,0.00000009,-0.00000015,-0.00000003,0.00000003,0.00000012,-0.
 00000003,0.00000043,-0.00000056,-0.00000011,-0.00000019,-0.00000818,0.
 00003418,-0.00002041,-0.00000288,0.00000122,-0.00000247,0.00000002,0.0
 0000005,0.00000004,-0.00000008,0.00000002,-0.00000007,0.00000001,0.000
 00002,-0.00000004,-0.00000002,-0.00000005,0.00000001,-0.00000052,0.000
 00033,-0.00000048,-0.00000007,0.00000009,0.,0.00000039,-0.00000009,0.0
 0000017,0.00000977,0.00001534,-0.00000159,0.00000015,0.00000002,-0.000
 00001,-0.00000015,0.00000002,-0.00000004,0.00000011,-0.00000001,0.,0.0
 0000002,-0.00000002,-0.00000005,-0.00000009,-0.00000019,0.00000009,0.0
 0000176,-0.00005086,0.00002438,0.00000014,0.00000028,0.00000023,0.0000
 0041,-0.00000020,-0.00000011\\\@


 THOSE WITH THE GOLD MAKE THE RULES.

             -- PETER'S GOLDEN RULE
 Job cpu time:       0 days  0 hours  0 minutes 38.7 seconds.
 File lengths (MBytes):  RWF=     53 Int=      0 D2E=      0 Chk=      2 Scr=      1
 Normal termination of Gaussian 09 at Tue Feb 16 04:13:11 2021.
