 Entering Gaussian System, Link 0=g09
 Initial command:
 /cm/shared/apps/Gaussian09/g09/l1.exe "/local/Gau-7201.inp" -scrdir="/local/"
 Entering Link 1 = /cm/shared/apps/Gaussian09/g09/l1.exe PID=      7202.
  
 Copyright (c) 1988,1990,1992,1993,1995,1998,2003,2009,2013,
            Gaussian, Inc.  All Rights Reserved.
  
 This is part of the Gaussian(R) 09 program.  It is based on
 the Gaussian(R) 03 system (copyright 2003, Gaussian, Inc.),
 the Gaussian(R) 98 system (copyright 1998, Gaussian, Inc.),
 the Gaussian(R) 94 system (copyright 1995, Gaussian, Inc.),
 the Gaussian 92(TM) system (copyright 1992, Gaussian, Inc.),
 the Gaussian 90(TM) system (copyright 1990, Gaussian, Inc.),
 the Gaussian 88(TM) system (copyright 1988, Gaussian, Inc.),
 the Gaussian 86(TM) system (copyright 1986, Carnegie Mellon
 University), and the Gaussian 82(TM) system (copyright 1983,
 Carnegie Mellon University). Gaussian is a federally registered
 trademark of Gaussian, Inc.
  
 This software contains proprietary and confidential information,
 including trade secrets, belonging to Gaussian, Inc.
  
 This software is provided under written license and may be
 used, copied, transmitted, or stored only in accord with that
 written license.
  
 The following legend is applicable only to US Government
 contracts under FAR:
  
                    RESTRICTED RIGHTS LEGEND
  
 Use, reproduction and disclosure by the US Government is
 subject to restrictions as set forth in subparagraphs (a)
 and (c) of the Commercial Computer Software - Restricted
 Rights clause in FAR 52.227-19.
  
 Gaussian, Inc.
 340 Quinnipiac St., Bldg. 40, Wallingford CT 06492
  
  
 ---------------------------------------------------------------
 Warning -- This program may not be used in any manner that
 competes with the business of Gaussian, Inc. or will provide
 assistance to any competitor of Gaussian, Inc.  The licensee
 of this program is prohibited from giving any competitor of
 Gaussian, Inc. access to this program.  By using this program,
 the user acknowledges that Gaussian, Inc. is engaged in the
 business of creating and licensing software in the field of
 computational chemistry and represents and warrants to the
 licensee that it is not a competitor of Gaussian, Inc. and that
 it will not use this program in any manner prohibited above.
 ---------------------------------------------------------------
  

 Cite this work as:
 Gaussian 09, Revision D.01,
 M. J. Frisch, G. W. Trucks, H. B. Schlegel, G. E. Scuseria, 
 M. A. Robb, J. R. Cheeseman, G. Scalmani, V. Barone, B. Mennucci, 
 G. A. Petersson, H. Nakatsuji, M. Caricato, X. Li, H. P. Hratchian, 
 A. F. Izmaylov, J. Bloino, G. Zheng, J. L. Sonnenberg, M. Hada, 
 M. Ehara, K. Toyota, R. Fukuda, J. Hasegawa, M. Ishida, T. Nakajima, 
 Y. Honda, O. Kitao, H. Nakai, T. Vreven, J. A. Montgomery, Jr., 
 J. E. Peralta, F. Ogliaro, M. Bearpark, J. J. Heyd, E. Brothers, 
 K. N. Kudin, V. N. Staroverov, T. Keith, R. Kobayashi, J. Normand, 
 K. Raghavachari, A. Rendell, J. C. Burant, S. S. Iyengar, J. Tomasi, 
 M. Cossi, N. Rega, J. M. Millam, M. Klene, J. E. Knox, J. B. Cross, 
 V. Bakken, C. Adamo, J. Jaramillo, R. Gomperts, R. E. Stratmann, 
 O. Yazyev, A. J. Austin, R. Cammi, C. Pomelli, J. W. Ochterski, 
 R. L. Martin, K. Morokuma, V. G. Zakrzewski, G. A. Voth, 
 P. Salvador, J. J. Dannenberg, S. Dapprich, A. D. Daniels, 
 O. Farkas, J. B. Foresman, J. V. Ortiz, J. Cioslowski, 
 and D. J. Fox, Gaussian, Inc., Wallingford CT, 2013.
 
 ******************************************
 Gaussian 09:  ES64L-G09RevD.01 24-Apr-2013
                16-Feb-2021 
 ******************************************
 %nprocshared=1
 Will use up to    1 processors via shared memory.
 ----------------------------------------------------------------------
 #P upm6 scf=qc opt(calcall, ts, noeigentest, cartesian,maxcycle=100) N
 oSymm, guess=mix
 ----------------------------------------------------------------------
 1/5=1,6=100,10=4,11=1,14=-1,18=10,26=1,38=1/1,3;
 2/12=2,15=1,17=6,18=5,29=2,40=1/2;
 3/5=2,16=1,25=1,41=3900000,71=2,116=2,140=1/1,2,3;
 4/13=-1,35=1/1;
 5/5=2,8=3,35=1,38=5/8;
 8/6=4,10=90,11=11/1;
 11/6=1,8=1,9=11,15=111,16=1,31=1/1,2,10;
 10/6=1,31=1/2;
 6/7=2,8=2,9=2,10=2,18=1,28=1/1;
 7/7=1,10=1,25=1,30=1/1,2,3,16;
 1/5=1,6=100,10=4,11=1,14=-1,18=10,26=1/3(3);
 2/15=1,29=1/2;
 7/7=1,8=1,9=1,25=1,30=1,44=-1/16;
 99/12=1/99;
 2/15=1,29=1/2;
 3/5=2,16=1,25=1,41=3900000,71=2,116=2,135=20,140=1/1,2,3;
 4/5=5,16=3,35=1/1;
 5/5=2,8=3,35=1,38=5/8;
 8/6=4,10=90,11=11/1;
 11/6=1,8=1,9=11,15=111,16=1,31=1/1,2,10;
 10/6=1,31=1/2;
 7/7=1,10=1,25=1,30=1/1,2,3,16;
 1/5=1,6=100,10=4,11=1,14=-1,18=10,26=1/3(-8);
 2/15=1,29=1/2;
 6/7=2,8=2,9=2,10=2,18=1,19=2,28=1/1;
 7/7=1,8=1,9=1,25=1,30=1,44=-1/16;
 99/12=1/99;
 Leave Link    1 at Tue Feb 16 04:57:34 2021, MaxMem=           0 cpu:         0.0
 (Enter /cm/shared/apps/Gaussian09/g09/l101.exe)
 ------------------------------
 Gaussian input prepared by ASE
 ------------------------------
 Symbolic Z-matrix:
 Charge =  0 Multiplicity = 1
 C                     4.23425  -3.10586   0.85314 
 C                     4.95136  -4.02102  -0.15031 
 C                     5.36947  -3.25906  -1.39659 
 C                     5.90942  -4.10983  -2.51383 
 C                     5.07653  -4.21268   2.96253 
 C                     3.86339  -3.85376   2.13425 
 H                     4.86258  -2.2243    1.08909 
 H                     3.31152  -2.696     0.39063 
 H                     5.84239  -4.48249   0.32294 
 H                     4.28397  -4.86536  -0.42428 
 H                     4.38678  -2.70823  -1.84196 
 H                     6.03924  -2.40733  -1.18525 
 C                     6.98599  -5.10371  -2.23906 
 H                     5.85638  -3.43767   3.03435 
 H                     3.17839  -3.23725   2.75506 
 H                     3.27794  -4.7693    1.90115 
 H                     7.79489  -4.68738  -1.6228 
 H                     7.43976  -5.48023  -3.17103 
 H                     6.5925   -5.98281  -1.70422 
 O                     5.18447  -5.28142   3.51905 
 O                     4.16939  -2.57875  -3.27793 
 O                     5.45123  -3.95456  -3.64641 
 
 NAtoms=     22 NQM=       22 NQMF=       0 NMMI=      0 NMMIF=      0
                NMic=       0 NMicF=      0.
                    Isotopes and Nuclear Properties:
 (Nuclear quadrupole moments (NQMom) in fm**2, nuclear magnetic moments (NMagM)
  in nuclear magnetons)

  Atom         1           2           3           4           5           6           7           8           9          10
 IAtWgt=          12          12          12          12          12          12           1           1           1           1
 AtmWgt=  12.0000000  12.0000000  12.0000000  12.0000000  12.0000000  12.0000000   1.0078250   1.0078250   1.0078250   1.0078250
 NucSpn=           0           0           0           0           0           0           1           1           1           1
 AtZEff=   0.0000000   0.0000000   0.0000000   0.0000000   0.0000000   0.0000000   0.0000000   0.0000000   0.0000000   0.0000000
 NQMom=    0.0000000   0.0000000   0.0000000   0.0000000   0.0000000   0.0000000   0.0000000   0.0000000   0.0000000   0.0000000
 NMagM=    0.0000000   0.0000000   0.0000000   0.0000000   0.0000000   0.0000000   2.7928460   2.7928460   2.7928460   2.7928460
 AtZNuc=   6.0000000   6.0000000   6.0000000   6.0000000   6.0000000   6.0000000   1.0000000   1.0000000   1.0000000   1.0000000

  Atom        11          12          13          14          15          16          17          18          19          20
 IAtWgt=           1           1          12           1           1           1           1           1           1          16
 AtmWgt=   1.0078250   1.0078250  12.0000000   1.0078250   1.0078250   1.0078250   1.0078250   1.0078250   1.0078250  15.9949146
 NucSpn=           1           1           0           1           1           1           1           1           1           0
 AtZEff=   0.0000000   0.0000000   0.0000000   0.0000000   0.0000000   0.0000000   0.0000000   0.0000000   0.0000000   0.0000000
 NQMom=    0.0000000   0.0000000   0.0000000   0.0000000   0.0000000   0.0000000   0.0000000   0.0000000   0.0000000   0.0000000
 NMagM=    2.7928460   2.7928460   0.0000000   2.7928460   2.7928460   2.7928460   2.7928460   2.7928460   2.7928460   0.0000000
 AtZNuc=   1.0000000   1.0000000   6.0000000   1.0000000   1.0000000   1.0000000   1.0000000   1.0000000   1.0000000   8.0000000

  Atom        21          22
 IAtWgt=          16          16
 AtmWgt=  15.9949146  15.9949146
 NucSpn=           0           0
 AtZEff=   0.0000000   0.0000000
 NQMom=    0.0000000   0.0000000
 NMagM=    0.0000000   0.0000000
 AtZNuc=   8.0000000   8.0000000
 Leave Link  101 at Tue Feb 16 04:57:34 2021, MaxMem=    33554432 cpu:         0.1
 (Enter /cm/shared/apps/Gaussian09/g09/l103.exe)

 GradGradGradGradGradGradGradGradGradGradGradGradGradGradGradGradGradGrad
 Berny optimization.
 Initialization pass.
 No Z-matrix variables, so optimization will use Cartesian coordinates.
 Trust Radius=3.00D-01 FncErr=1.00D-07 GrdErr=1.00D-07
 Number of steps in this run=    100 maximum allowed number of steps=    132.
 Search for a saddle point of order  1.
 GradGradGradGradGradGradGradGradGradGradGradGradGradGradGradGradGradGrad

 Leave Link  103 at Tue Feb 16 04:57:34 2021, MaxMem=    33554432 cpu:         0.0
 (Enter /cm/shared/apps/Gaussian09/g09/l202.exe)
 ---------------------------------------------------------------------------------------------------
                            Z-MATRIX (ANGSTROMS AND DEGREES)
   CD    Cent   Atom    N1       Length/X        N2       Alpha/Y        N3        Beta/Z          J
 ---------------------------------------------------------------------------------------------------
      1      1  C        0   4.234252         -3.105857          0.853135
      2      2  C        0   4.951356         -4.021023         -0.150313
      3      3  C        0   5.369468         -3.259059         -1.396586
      4      4  C        0   5.909419         -4.109826         -2.513833
      5      5  C        0   5.076527         -4.212681          2.962527
      6      6  C        0   3.863392         -3.853757          2.134253
      7      7  H        0   4.862581         -2.224300          1.089087
      8      8  H        0   3.311519         -2.696003          0.390630
      9      9  H        0   5.842391         -4.482487          0.322936
     10     10  H        0   4.283966         -4.865360         -0.424283
     11     11  H        0   4.386779         -2.708225         -1.841959
     12     12  H        0   6.039238         -2.407333         -1.185251
     13     13  C        0   6.985993         -5.103708         -2.239064
     14     14  H        0   5.856376         -3.437674          3.034352
     15     15  H        0   3.178387         -3.237248          2.755063
     16     16  H        0   3.277944         -4.769304          1.901146
     17     17  H        0   7.794886         -4.687379         -1.622796
     18     18  H        0   7.439763         -5.480226         -3.171028
     19     19  H        0   6.592502         -5.982809         -1.704221
     20     20  O        0   5.184468         -5.281424          3.519050
     21     21  O        0   4.169385         -2.578754         -3.277931
     22     22  O        0   5.451230         -3.954564         -3.646406
 ---------------------------------------------------------------------------------------------------
                         Z-Matrix orientation:                         
 ---------------------------------------------------------------------
 Center     Atomic      Atomic             Coordinates (Angstroms)
 Number     Number       Type             X           Y           Z
 ---------------------------------------------------------------------
      1          6           0        4.234252   -3.105857    0.853135
      2          6           0        4.951356   -4.021023   -0.150313
      3          6           0        5.369468   -3.259059   -1.396586
      4          6           0        5.909419   -4.109826   -2.513833
      5          6           0        5.076527   -4.212681    2.962527
      6          6           0        3.863392   -3.853757    2.134253
      7          1           0        4.862581   -2.224300    1.089087
      8          1           0        3.311519   -2.696003    0.390630
      9          1           0        5.842391   -4.482487    0.322936
     10          1           0        4.283966   -4.865360   -0.424283
     11          1           0        4.386779   -2.708225   -1.841959
     12          1           0        6.039238   -2.407333   -1.185251
     13          6           0        6.985993   -5.103708   -2.239064
     14          1           0        5.856376   -3.437674    3.034352
     15          1           0        3.178387   -3.237248    2.755063
     16          1           0        3.277944   -4.769304    1.901146
     17          1           0        7.794886   -4.687379   -1.622796
     18          1           0        7.439763   -5.480226   -3.171028
     19          1           0        6.592502   -5.982809   -1.704221
     20          8           0        5.184468   -5.281424    3.519050
     21          8           0        4.169385   -2.578754   -3.277931
     22          8           0        5.451230   -3.954564   -3.646406
 ---------------------------------------------------------------------
                    Distance matrix (angstroms):
                    1          2          3          4          5
     1  C    0.000000
     2  C    1.535798   0.000000
     3  C    2.524565   1.519409   0.000000
     4  C    3.892379   2.551862   1.504524   0.000000
     5  C    2.526662   3.121245   4.471809   5.540289   0.000000
     6  C    1.529103   2.535919   3.884425   5.084929   1.512138
     7  H    1.107977   2.184538   2.739750   4.199061   2.740294
     8  H    1.110553   2.176548   2.783222   4.145345   3.468461
     9  H    2.182277   1.109440   2.162681   2.861927   2.761663
    10  H    2.174884   1.110574   2.168845   2.753025   3.539015
    11  H    2.728536   2.214464   1.211385   2.175852   5.081557
    12  H    2.810859   2.204219   1.103944   2.163438   4.624949
    13  C    4.596214   3.110440   2.593386   1.490742   5.612178
    14  H    2.738448   3.361763   4.461188   5.589003   1.101798
    15  H    2.179322   3.492697   4.694412   5.998433   2.144166
    16  H    2.186300   2.751130   4.186926   5.181854   2.161310
    17  H    4.616228   3.270764   2.823813   2.163909   5.351635
    18  H    5.666288   4.176860   3.516866   2.156816   6.694180
    19  H    4.514229   2.992757   3.001544   2.151776   5.216327
    20  O    3.569749   3.886795   5.318615   6.188204   1.209785
    21  O    4.165063   3.531800   2.332911   2.440440   6.514287
    22  O    4.737848   3.532274   2.356290   1.231570   6.624577
                    6          7          8          9         10
     6  C    0.000000
     7  H    2.178504   0.000000
     8  H    2.164528   1.765259   0.000000
     9  H    2.755469   2.578066   3.098616   0.000000
    10  H    2.783223   3.098432   2.513135   1.770202   0.000000
    11  H    4.170904   3.008588   2.478061   3.154930   2.583333
    12  H    4.224400   2.567223   3.163413   2.572866   3.114795
    13  C    5.517147   4.886354   5.119970   2.873601   3.263616
    14  H    2.226048   2.498792   3.743747   2.905788   4.058684
    15  H    1.111180   2.576441   2.429241   3.816121   3.739157
    16  H    1.111447   3.106052   2.565417   3.024797   2.535533
    17  H    5.501544   4.692492   5.302833   2.764071   3.714118
    18  H    6.601654   5.949076   6.122067   3.969240   4.228679
    19  H    5.168635   4.992152   5.094737   2.631159   2.866404
    20  O    2.387706   3.918461   4.469827   3.359510   4.066188
    21  O    5.568752   4.435877   3.769353   4.403339   3.658552
    22  O    5.995616   5.075945   4.739198   4.023355   3.546002
                   11         12         13         14         15
    11  H    0.000000
    12  H    1.803447   0.000000
    13  C    3.556957   3.045867   0.000000
    14  H    5.144922   4.347423   5.644521   0.000000
    15  H    4.782540   4.939565   6.551553   2.699963   0.000000
    16  H    4.414566   4.767546   5.568015   3.115398   1.756782
    17  H    3.947186   2.910731   1.098828   5.196981   6.525381
    18  H    4.332566   3.917582   1.102828   6.722044   7.636022
    19  H    3.950580   3.655059   1.101685   5.428966   6.251360
    20  O    5.999840   5.578663   6.035972   2.021338   2.964236
    21  O    1.458094   2.811591   3.922744   6.590038   6.149204
    22  O    2.437713   2.965967   2.378369   6.712961   6.830751
                   16         17         18         19         20
    16  H    0.000000
    17  H    5.729541   0.000000
    18  H    6.599477   1.775314   0.000000
    19  H    5.045549   1.769321   1.766908   0.000000
    20  O    2.552394   5.797047   7.062791   5.455003   0.000000
    21  O    5.693506   4.508883   4.373253   4.464936   7.384698
    22  O    6.013510   3.181939   2.551057   3.031231   7.292152
                   21         22
    21  O    0.000000
    22  O    1.916182   0.000000
 Symmetry turned off by external request.
 Stoichiometry    C7H12O3
 Framework group  C1[X(C7H12O3)]
 Deg. of freedom    60
 Full point group                 C1      NOp   1
 Rotational constants (GHZ):      2.4585080      0.5170600      0.4435019
 Leave Link  202 at Tue Feb 16 04:57:34 2021, MaxMem=    33554432 cpu:         0.0
 (Enter /cm/shared/apps/Gaussian09/g09/l301.exe)
 Standard basis: VSTO-6G (5D, 7F)
 Ernie: Thresh=  0.10000D-02 Tol=  0.10000D-05 Strict=F.
  NNHCO=     0 NNPyr=     0 NCTC=     0               EPep=         0.000000000
    EC=       250.903852149  ECS=         4.005067968   EG=         0.354766896
   EHC=         0.001042363  EAt=       -66.250074573  AtH=         3.187411664
 EPDDG=         0.000000000  ECC=       255.264729377 EAtT=        69.437486237
    52 basis functions,   312 primitive gaussians,    52 cartesian basis functions
    29 alpha electrons       29 beta electrons
       nuclear repulsion energy       324.7022156140 Hartrees.
 IExCor=    0 DFT=F Ex=HF Corr=None ExCW=0 ScaHFX=  1.000000
 ScaDFX=  1.000000  1.000000  1.000000  1.000000 ScalE2=  1.000000  1.000000
 IRadAn=      0 IRanWt=     -1 IRanGd=            0 ICorTp=0 IEmpDi=  4
 Integral buffers will be    131072 words long.
 Regular integral format.
 Two-electron integral symmetry is turned off.
 Leave Link  301 at Tue Feb 16 04:57:34 2021, MaxMem=    33554432 cpu:         0.0
 (Enter /cm/shared/apps/Gaussian09/g09/l302.exe)
 Do NDO integrals.
 NPDir=0 NMtPBC=     1 NCelOv=     1 NCel=       1 NClECP=     1 NCelD=      1
         NCelK=      1 NCelE2=     1 NClLst=     1 CellRange=     0.0.
 One-electron integrals computed using PRISM.
 NBasis=    52 RedAO= F EigKep=  0.00D+00  NBF=    52
 NBsUse=    52 1.00D-04 EigRej=  0.00D+00 NBFU=    52
 Leave Link  302 at Tue Feb 16 04:57:34 2021, MaxMem=    33554432 cpu:         0.1
 (Enter /cm/shared/apps/Gaussian09/g09/l303.exe)
 DipDrv:  MaxL=1.
 Leave Link  303 at Tue Feb 16 04:57:34 2021, MaxMem=    33554432 cpu:         0.0
 (Enter /cm/shared/apps/Gaussian09/g09/l401.exe)
 Simple Huckel Guess.
 JPrj=0 DoOrth=F DoCkMO=T.
 Mixing orbitals, IMix= 1 IMixAn=  0 NRI=1 NE=   29 Coef=  7.07106781D-01  7.07106781D-01
 Mixing orbitals, IMix= 1 IMixAn=  0 NRI=1 NE=   29 Coef= -7.07106781D-01  7.07106781D-01
 Initial guess <Sx>= 0.0000 <Sy>= 0.0000 <Sz>= 0.0000 <S**2>= 1.0000 S= 0.6180
 Leave Link  401 at Tue Feb 16 04:57:34 2021, MaxMem=    33554432 cpu:         0.0
 (Enter /cm/shared/apps/Gaussian09/g09/l508.exe)
 Direct SCF.
 Tight linear equation convergence will be used.
 UPM6 wavefunction.
 Quadratic Convergence SCF Method.
 Line search only if initial step raises energy.
 Two-electron integral symmetry not used.
 ReadGW:  IGet=1 IStart=       59293 Next=       59293 LGW=           0.
 Keep J ints in memory in canonical form, NReq=905730.
 FoFCou: FMM=F IPFlag=           0 FMFlag=           0 FMFlg1=           0
         NFxFlg=           0 DoJE=F BraDBF=F KetDBF=F FulRan=T
         wScrn=  0.000000 ICntrl=     600 IOpCl=  2 I1Cent=           0 NGrid=           0
         NMat0=    1 NMatS0=    112 NMatT0=    0 NMatD0=    1 NMtDS0=    0 NMtDT0=    0
 Symmetry not used in FoFCou.
 Iteration   1 EE= 0.510424641717975                                    Grad=4.875D-01 Max rot=    5.7943 deg.
 Gradient too large for Newton-Raphson -- use scaled steepest descent instead.
 Alpha Gap=     0.293 HL deriv= 1.30D-01
  Beta Gap=     0.319 HL deriv= 1.32D-02
     ILin= 1 X=0.000D+00 Y= 5.104246417180D-01 DE= 0.00D+00 F= -7.02D-01
     ILin= 2 X=3.000D-01 Y= 3.218470550987D-01 DE=-1.89D-01 F= -5.53D-01
     ILin= 3 X=4.000D-01 Y= 2.692279163251D-01 DE=-2.41D-01 F= -5.00D-01
     ILin= 4 X=6.000D-01 Y= 1.801870834395D-01 DE=-3.30D-01 F= -3.90D-01
     ILin= 5 X=8.000D-01 Y= 1.134379908842D-01 DE=-3.97D-01 F= -2.77D-01
     ILin= 6 X=1.200D+00 Y= 4.885783282788D-02 DE=-4.62D-01 F= -4.54D-02
     ILin= 7 X=1.700D+00 Y= 9.803102640052D-02 DE=-4.12D-01 F=  2.40D-01
     An  expanding polynomial of degree  7 produced  1.2784
     Minimum is close to point  6 DX=  7.84D-02 DF= -1.78D-03 DXR=  6.13D-02 DFR=  3.86D-03 which will be used.
 Iteration   2 EE= 0.488578328278777E-01 Delta-E=       -0.461566808890 Grad=1.520D-01 Max rot=    1.3924 deg.
 Gradient too large for Newton-Raphson -- use scaled steepest descent instead.
 Alpha Gap=     0.369 HL deriv= 1.25D-02
  Beta Gap=     0.358 HL deriv= 2.38D-02
     ILin= 1 X=0.000D+00 Y= 4.885783282788D-02 DE= 0.00D+00 F= -5.95D-02
     ILin= 2 X=6.000D-01 Y= 2.057644282837D-02 DE=-2.83D-02 F= -3.47D-02
     ILin= 3 X=1.100D+00 Y= 8.454871502465D-03 DE=-4.04D-02 F= -1.38D-02
     ILin= 4 X=2.000D+00 Y= 1.319728965808D-02 DE=-3.57D-02 F=  2.43D-02
     An  expanding polynomial of degree  4 produced  1.4263
 Iteration   3 EE= 0.621288731025516E-02 Delta-E=       -0.042644945518 Grad=5.583D-02 Max rot=    0.5920 deg.
 Gradient too large for Newton-Raphson -- use scaled steepest descent instead.
 Alpha Gap=     0.359 HL deriv= 1.34D-02
  Beta Gap=     0.384 HL deriv= 2.01D-02
     ILin= 1 X=0.000D+00 Y= 6.212887310255D-03 DE= 0.00D+00 F= -9.34D-03
     ILin= 2 X=1.400D+00 Y= 2.363649617223D-04 DE=-5.98D-03 F=  8.40D-04
     Accept linear search using points  1 and  2.
     An  expanding polynomial of degree  2 produced  1.3462
     Minimum is close to point  2 DX= -5.38D-02 DF= -1.60D-05 DXR=  4.00D-02 DFR=  2.68D-03 which will be used.
 Iteration   4 EE= 0.236364961722302E-03 Delta-E=       -0.005976522349 Grad=2.742D-02 Max rot=    0.2680 deg.
 Gradient too large for Newton-Raphson -- use scaled steepest descent instead.
 Alpha Gap=     0.360 HL deriv= 3.38D-03
  Beta Gap=     0.375 HL deriv= 9.02D-03
     ILin= 1 X=0.000D+00 Y= 2.363649617223D-04 DE= 0.00D+00 F= -2.13D-03
     ILin= 2 X=1.400D+00 Y=-1.117319781997D-03 DE=-1.35D-03 F=  1.90D-04
     Accept linear search using points  1 and  2.
     An  expanding polynomial of degree  2 produced  1.3457
     Minimum is close to point  2 DX= -5.43D-02 DF= -3.66D-06 DXR=  4.03D-02 DFR=  2.70D-03 which will be used.
 Iteration   5 EE=-0.111731978199714E-02 Delta-E=       -0.001353684744 Grad=1.409D-02 Max rot=    0.1945 deg.
 Gradient too large for Newton-Raphson -- use scaled steepest descent instead.
 Alpha Gap=     0.356 HL deriv= 1.04D-03
  Beta Gap=     0.381 HL deriv= 6.48D-03
     ILin= 1 X=0.000D+00 Y=-1.117319781997D-03 DE= 0.00D+00 F= -5.76D-04
     ILin= 2 X=1.300D+00 Y=-1.516137465273D-03 DE=-3.99D-04 F= -3.71D-05
     Reject lnstep minimum 1.339D+00 FVal=-1.516704093976D-03 Lims=  0.00D+00  1.30D+00
     ILin= 3 X=2.700D+00 Y=-1.160290127245D-03 DE=-4.30D-05 F=  5.46D-04
     An  expanding polynomial of degree  3 produced  1.3883
     Minimum is close to point  2 DX=  8.83D-02 DF= -1.62D-06 DXR=  6.36D-02 DFR=  4.06D-03 which will be used.
 Iteration   6 EE=-0.151613746527346E-02 Delta-E=       -0.000398817683 Grad=6.939D-03 Max rot=    0.1061 deg.
 QCNR:  CnvC1=3.65D-09 CnvC2=3.65D-08
 LinEq1:  Iter=  0 NonCon=     1 RMS=3.69D-04 Max=9.48D-03 NDo=     1
 AX will form     1 AO Fock derivatives at one time.
 LinEq1:  Iter=  1 NonCon=     1 RMS=1.11D-04 Max=1.30D-03 NDo=     1
 LinEq1:  Iter=  2 NonCon=     1 RMS=3.83D-05 Max=8.27D-04 NDo=     1
 LinEq1:  Iter=  3 NonCon=     1 RMS=5.83D-06 Max=8.04D-05 NDo=     1
 LinEq1:  Iter=  4 NonCon=     1 RMS=1.36D-06 Max=2.35D-05 NDo=     1
 LinEq1:  Iter=  5 NonCon=     1 RMS=2.59D-07 Max=3.82D-06 NDo=     1
 LinEq1:  Iter=  6 NonCon=     1 RMS=5.97D-08 Max=1.03D-06 NDo=     1
 LinEq1:  Iter=  7 NonCon=     1 RMS=1.42D-08 Max=1.82D-07 NDo=     1
 LinEq1:  Iter=  8 NonCon=     1 RMS=3.54D-09 Max=5.98D-08 NDo=     1
 LinEq1:  Iter=  9 NonCon=     0 RMS=8.26D-10 Max=1.26D-08 NDo=     1
 Linear equations converged to 3.652D-09 3.652D-08 after     9 iterations.
 Angle between quadratic step and gradient=  62.05 degrees.
     ILin= 1 X=0.000D+00 Y=-1.516137465273D-03 DE= 0.00D+00 F= -1.67D-03
     ILin= 2 X=1.000D+00 Y=-2.277992124618D-03 DE=-7.62D-04 F=  2.09D-04
     Accept linear search using points  1 and  2.
     An  expanding polynomial of degree  2 produced  0.8982
 Iteration   7 EE=-0.228872098267630E-02 Delta-E=       -0.000772583517 Grad=1.803D-03 Max rot=    0.0206 deg.
 QCNR:  CnvC1=3.65D-09 CnvC2=3.65D-08
 LinEq1:  Iter=  0 NonCon=     1 RMS=7.63D-05 Max=5.66D-04 NDo=     1
 LinEq1:  Iter=  1 NonCon=     1 RMS=1.68D-05 Max=1.33D-04 NDo=     1
 LinEq1:  Iter=  2 NonCon=     1 RMS=4.83D-06 Max=6.54D-05 NDo=     1
 LinEq1:  Iter=  3 NonCon=     1 RMS=1.15D-06 Max=2.30D-05 NDo=     1
 LinEq1:  Iter=  4 NonCon=     1 RMS=2.51D-07 Max=4.40D-06 NDo=     1
 LinEq1:  Iter=  5 NonCon=     1 RMS=5.81D-08 Max=7.02D-07 NDo=     1
 LinEq1:  Iter=  6 NonCon=     1 RMS=1.54D-08 Max=1.24D-07 NDo=     1
 LinEq1:  Iter=  7 NonCon=     0 RMS=2.92D-09 Max=2.54D-08 NDo=     1
 Linear equations converged to 3.652D-09 3.652D-08 after     7 iterations.
 Angle between quadratic step and gradient=  46.98 degrees.
     ILin= 1 X=0.000D+00 Y=-2.288720982676D-03 DE= 0.00D+00 F= -2.26D-05
     ILin= 2 X=1.000D+00 Y=-2.300028613945D-03 DE=-1.13D-05 F=  3.76D-09
     Accept linear search using points  1 and  2.
     An  expanding polynomial of degree  2 produced  0.9998
     Minimum is close to point  2 DX= -1.67D-04 DF= -3.13D-13 DXR=  1.67D-04 DFR=  2.77D-08 which will be used.
 Iteration   8 EE=-0.230002861394496E-02 Delta-E=       -0.000011307631 Grad=5.324D-05 Max rot=    0.0007 deg.
 QCNR:  CnvC1=5.32D-10 CnvC2=5.32D-09
 LinEq1:  Iter=  0 NonCon=     1 RMS=2.08D-06 Max=1.79D-05 NDo=     1
 LinEq1:  Iter=  1 NonCon=     1 RMS=5.52D-07 Max=6.07D-06 NDo=     1
 LinEq1:  Iter=  2 NonCon=     1 RMS=1.50D-07 Max=2.02D-06 NDo=     1
 LinEq1:  Iter=  3 NonCon=     1 RMS=3.96D-08 Max=3.80D-07 NDo=     1
 LinEq1:  Iter=  4 NonCon=     1 RMS=9.22D-09 Max=1.44D-07 NDo=     1
 LinEq1:  Iter=  5 NonCon=     1 RMS=1.98D-09 Max=1.90D-08 NDo=     1
 LinEq1:  Iter=  6 NonCon=     0 RMS=4.59D-10 Max=4.35D-09 NDo=     1
 Linear equations converged to 5.324D-10 5.324D-09 after     6 iterations.
 Angle between quadratic step and gradient=  67.44 degrees.
     ILin= 1 X=0.000D+00 Y=-2.300028613945D-03 DE= 0.00D+00 F= -1.92D-08
     ILin= 2 X=1.000D+00 Y=-2.300038191265D-03 DE=-9.58D-09
 Iteration   9 EE=-0.230003819126523E-02 Delta-E=       -0.000000009577 Grad=7.158D-06 Max rot=    0.0001 deg.
 QCNR:  CnvC1=7.16D-11 CnvC2=7.16D-10
 LinEq1:  Iter=  0 NonCon=     1 RMS=2.53D-07 Max=2.40D-06 NDo=     1
 LinEq1:  Iter=  1 NonCon=     1 RMS=9.06D-08 Max=1.09D-06 NDo=     1
 LinEq1:  Iter=  2 NonCon=     1 RMS=2.22D-08 Max=3.28D-07 NDo=     1
 LinEq1:  Iter=  3 NonCon=     1 RMS=5.75D-09 Max=5.55D-08 NDo=     1
 LinEq1:  Iter=  4 NonCon=     1 RMS=1.21D-09 Max=1.13D-08 NDo=     1
 LinEq1:  Iter=  5 NonCon=     1 RMS=2.71D-10 Max=2.47D-09 NDo=     1
 LinEq1:  Iter=  6 NonCon=     1 RMS=7.22D-11 Max=7.27D-10 NDo=     1
 LinEq1:  Iter=  7 NonCon=     0 RMS=1.49D-11 Max=2.43D-10 NDo=     1
 Linear equations converged to 7.158D-11 7.158D-10 after     7 iterations.
 Angle between quadratic step and gradient=  69.92 degrees.
     ILin= 1 X=0.000D+00 Y=-2.300038191265D-03 DE= 0.00D+00 F= -3.51D-10
     ILin= 2 X=1.000D+00 Y=-2.300038368105D-03 DE=-1.77D-10
 Iteration  10 EE=-0.230003836810511E-02 Delta-E=       -0.000000000177 Grad=4.875D-07 Max rot=    0.0000 deg.
 QCNR:  CnvC1=4.87D-12 CnvC2=4.87D-11
 LinEq1:  Iter=  0 NonCon=     1 RMS=1.99D-08 Max=3.26D-07 NDo=     1
 LinEq1:  Iter=  1 NonCon=     1 RMS=7.02D-09 Max=1.26D-07 NDo=     1
 LinEq1:  Iter=  2 NonCon=     1 RMS=1.68D-09 Max=1.64D-08 NDo=     1
 LinEq1:  Iter=  3 NonCon=     1 RMS=3.29D-10 Max=3.34D-09 NDo=     1
 LinEq1:  Iter=  4 NonCon=     1 RMS=8.06D-11 Max=7.46D-10 NDo=     1
 LinEq1:  Iter=  5 NonCon=     1 RMS=1.91D-11 Max=2.47D-10 NDo=     1
 LinEq1:  Iter=  6 NonCon=     1 RMS=4.87D-12 Max=5.57D-11 NDo=     1
 LinEq1:  Iter=  7 NonCon=     0 RMS=1.36D-12 Max=1.68D-11 NDo=     1
 Linear equations converged to 4.875D-12 4.875D-11 after     7 iterations.
 Angle between quadratic step and gradient=  67.06 degrees.
     ILin= 1 X=0.000D+00 Y=-2.300038368105D-03 DE= 0.00D+00 F= -4.17D-12
     ILin= 2 X=1.000D+00 Y=-2.300038370606D-03 DE=-2.50D-12
 Iteration  11 EE=-0.230003837060622E-02 Delta-E=       -0.000000000003 Grad=8.639D-08 Max rot=    0.0000 deg.
 Rotation gradient small -- convergence achieved.
 SCF Done:  E(UPM6) = -0.230003837061E-02 a.u. after   11 cycles
            Convg  =    0.8639D-07                    57 Fock formations.
              S**2 =  1.0120                  -V/T =  0.9999
 <Sx>= 0.0000 <Sy>= 0.0000 <Sz>= 0.0000 <S**2>= 1.0120 S= 0.6234
 <L.S>= 0.000000000000E+00
 Annihilation of the first spin contaminant:
 S**2 before annihilation     1.0120,   after     0.1141
 Leave Link  508 at Tue Feb 16 04:57:34 2021, MaxMem=    33554432 cpu:         0.1
 (Enter /cm/shared/apps/Gaussian09/g09/l801.exe)
 Range of M.O.s used for correlation:     1    52
 NBasis=    52 NAE=    29 NBE=    29 NFC=     0 NFV=     0
 NROrb=     52 NOA=    29 NOB=    29 NVA=    23 NVB=    23
 Leave Link  801 at Tue Feb 16 04:57:34 2021, MaxMem=    33554432 cpu:         0.0
 (Enter /cm/shared/apps/Gaussian09/g09/l1101.exe)
 Using compressed storage, NAtomX=    22.
 Will process     23 centers per pass.
 Leave Link 1101 at Tue Feb 16 04:57:34 2021, MaxMem=    33554432 cpu:         0.0
 (Enter /cm/shared/apps/Gaussian09/g09/l1102.exe)
 Symmetrizing basis deriv contribution to polar:
 IMax=3 JMax=2 DiffMx= 0.00D+00
 Leave Link 1102 at Tue Feb 16 04:57:34 2021, MaxMem=    33554432 cpu:         0.0
 (Enter /cm/shared/apps/Gaussian09/g09/l1110.exe)
 Forming Gx(P) for the SCF density, NAtomX=    22.
 Integral derivatives from FoFJK, PRISM(SPDF).
 Do as many integral derivatives as possible in FoFJK.
 G2DrvN: MDV=      33495261.
 G2DrvN: will do    23 centers at a time, making    1 passes.
 Calling FoFCou, ICntrl=  3107 FMM=F I1Cent=   0 AccDes= 0.00D+00.
 FoFJK:  IHMeth=40 ICntrl=    3107 DoSepK=F KAlg= 0 I1Cent=   0 FoldK=F
 IRaf=         0 NMat=   1 IRICut=       1 DoRegI=T DoRafI=F ISym2E= 0.
 FoFCou: FMM=F IPFlag=           0 FMFlag=      100000 FMFlg1=           0
         NFxFlg=           0 DoJE=F BraDBF=F KetDBF=F FulRan=T
         wScrn=  0.000000 ICntrl=    3107 IOpCl=  1 I1Cent=           0 NGrid=           0
         NMat0=    1 NMatS0=      1 NMatT0=    0 NMatD0=    1 NMtDS0=    0 NMtDT0=    0
 Symmetry not used in FoFCou.
 End of G2Drv F.D. properties file   721 does not exist.
 End of G2Drv F.D. properties file   722 does not exist.
 End of G2Drv F.D. properties file   788 does not exist.
 Leave Link 1110 at Tue Feb 16 04:57:34 2021, MaxMem=    33554432 cpu:         0.0
 (Enter /cm/shared/apps/Gaussian09/g09/l1002.exe)
 Minotr:  UHF open shell wavefunction.
          IDoAtm=1111111111111111111111
          Direct CPHF calculation.
          Differentiating once with respect to electric field.
                with respect to dipole field.
          Differentiating once with respect to nuclear coordinates.
          Electric field/nuclear overlap derivatives assumed to be zero.
          Requested convergence is 1.0D-08 RMS, and 1.0D-07 maximum.
          NewPWx=T KeepS1=F KeepF1=F KeepIn=T MapXYZ=F SortEE=F KeepMc=T.
          MDV=      33495213 using IRadAn=       2.
 Keep J ints in memory in canonical form, NReq=888555.
 FoFCou: FMM=F IPFlag=           0 FMFlag=           0 FMFlg1=           0
         NFxFlg=           0 DoJE=F BraDBF=F KetDBF=F FulRan=T
         wScrn=  0.000000 ICntrl=     600 IOpCl=  2 I1Cent=           0 NGrid=           0
         NMat0=    1 NMatS0=    112 NMatT0=    0 NMatD0=    1 NMtDS0=    0 NMtDT0=    0
 Symmetry not used in FoFCou.
          Solving linear equations separately, MaxMat=       0.
          There are    69 degrees of freedom in the 1st order CPHF.  IDoFFX=5 NUNeed=    69.
 LinEq1:  Iter=  0 NonCon=    69 RMS=1.88D-01 Max=2.40D+00 NDo=    69
 AX will form    69 AO Fock derivatives at one time.
 LinEq1:  Iter=  1 NonCon=    69 RMS=3.31D-02 Max=5.22D-01 NDo=    69
 LinEq1:  Iter=  2 NonCon=    69 RMS=7.30D-03 Max=9.98D-02 NDo=    69
 LinEq1:  Iter=  3 NonCon=    69 RMS=1.84D-03 Max=3.33D-02 NDo=    69
 LinEq1:  Iter=  4 NonCon=    69 RMS=4.10D-04 Max=5.95D-03 NDo=    69
 LinEq1:  Iter=  5 NonCon=    69 RMS=1.01D-04 Max=1.25D-03 NDo=    69
 LinEq1:  Iter=  6 NonCon=    69 RMS=2.05D-05 Max=1.87D-04 NDo=    69
 LinEq1:  Iter=  7 NonCon=    68 RMS=5.29D-06 Max=6.54D-05 NDo=    69
 LinEq1:  Iter=  8 NonCon=    33 RMS=1.29D-06 Max=1.59D-05 NDo=    69
 LinEq1:  Iter=  9 NonCon=     8 RMS=2.71D-07 Max=3.54D-06 NDo=    69
 LinEq1:  Iter= 10 NonCon=     3 RMS=6.38D-08 Max=7.30D-07 NDo=    69
 LinEq1:  Iter= 11 NonCon=     2 RMS=1.07D-08 Max=1.37D-07 NDo=    69
 LinEq1:  Iter= 12 NonCon=     0 RMS=2.08D-09 Max=4.31D-08 NDo=    69
 Linear equations converged to 1.000D-08 1.000D-07 after    12 iterations.
 FullF1:  Do perturbations    1 to     3.
 Isotropic polarizability for W=    0.000000       69.31 Bohr**3.
 End of Minotr F.D. properties file   721 does not exist.
 End of Minotr F.D. properties file   722 does not exist.
 End of Minotr F.D. properties file   788 does not exist.
 Leave Link 1002 at Tue Feb 16 04:57:35 2021, MaxMem=    33554432 cpu:         0.4
 (Enter /cm/shared/apps/Gaussian09/g09/l601.exe)
 Copying SCF densities to generalized density rwf, IOpCl= 1 IROHF=0.

 **********************************************************************

            Population analysis using the SCF density.

 **********************************************************************

 Alpha  occ. eigenvalues --   -1.20466  -1.18114  -1.09034  -1.03042  -0.97734
 Alpha  occ. eigenvalues --   -0.91849  -0.87676  -0.81338  -0.76940  -0.73359
 Alpha  occ. eigenvalues --   -0.63936  -0.62767  -0.61551  -0.60133  -0.58767
 Alpha  occ. eigenvalues --   -0.57718  -0.55189  -0.53230  -0.52451  -0.51768
 Alpha  occ. eigenvalues --   -0.50983  -0.49037  -0.48229  -0.47407  -0.45311
 Alpha  occ. eigenvalues --   -0.45196  -0.38206  -0.37847  -0.36126
 Alpha virt. eigenvalues --   -0.04646  -0.00438   0.00361   0.08671   0.10451
 Alpha virt. eigenvalues --    0.10930   0.11355   0.12791   0.13271   0.14246
 Alpha virt. eigenvalues --    0.15377   0.16303   0.16588   0.16784   0.17444
 Alpha virt. eigenvalues --    0.17815   0.18033   0.18993   0.19793   0.20233
 Alpha virt. eigenvalues --    0.20724   0.20872   0.21083
  Beta  occ. eigenvalues --   -1.18118  -1.17764  -1.08918  -1.02617  -0.97781
  Beta  occ. eigenvalues --   -0.92076  -0.87834  -0.81328  -0.76979  -0.72895
  Beta  occ. eigenvalues --   -0.63985  -0.62257  -0.61346  -0.59879  -0.58953
  Beta  occ. eigenvalues --   -0.57334  -0.55148  -0.53428  -0.52408  -0.52148
  Beta  occ. eigenvalues --   -0.50725  -0.49246  -0.47988  -0.46971  -0.45941
  Beta  occ. eigenvalues --   -0.40386  -0.39455  -0.38203  -0.36222
  Beta virt. eigenvalues --   -0.02484  -0.00109   0.00360   0.08513   0.10409
  Beta virt. eigenvalues --    0.10896   0.11488   0.12870   0.13309   0.14835
  Beta virt. eigenvalues --    0.15376   0.16102   0.16471   0.16772   0.17518
  Beta virt. eigenvalues --    0.17598   0.18002   0.18905   0.19312   0.20186
  Beta virt. eigenvalues --    0.20718   0.20863   0.21061
          Condensed to atoms (all electrons):
               1          2          3          4          5          6
     1  C    4.229582   0.000000   0.000000   0.000000   0.000000   0.000000
     2  C    0.000000   4.237572   0.000000   0.000000   0.000000   0.000000
     3  C    0.000000   0.000000   4.391592   0.000000   0.000000   0.000000
     4  C    0.000000   0.000000   0.000000   3.455558   0.000000   0.000000
     5  C    0.000000   0.000000   0.000000   0.000000   3.591118   0.000000
     6  C    0.000000   0.000000   0.000000   0.000000   0.000000   4.449559
     7  H    0.000000   0.000000   0.000000   0.000000   0.000000   0.000000
     8  H    0.000000   0.000000   0.000000   0.000000   0.000000   0.000000
     9  H    0.000000   0.000000   0.000000   0.000000   0.000000   0.000000
    10  H    0.000000   0.000000   0.000000   0.000000   0.000000   0.000000
    11  H    0.000000   0.000000   0.000000   0.000000   0.000000   0.000000
    12  H    0.000000   0.000000   0.000000   0.000000   0.000000   0.000000
    13  C    0.000000   0.000000   0.000000   0.000000   0.000000   0.000000
    14  H    0.000000   0.000000   0.000000   0.000000   0.000000   0.000000
    15  H    0.000000   0.000000   0.000000   0.000000   0.000000   0.000000
    16  H    0.000000   0.000000   0.000000   0.000000   0.000000   0.000000
    17  H    0.000000   0.000000   0.000000   0.000000   0.000000   0.000000
    18  H    0.000000   0.000000   0.000000   0.000000   0.000000   0.000000
    19  H    0.000000   0.000000   0.000000   0.000000   0.000000   0.000000
    20  O    0.000000   0.000000   0.000000   0.000000   0.000000   0.000000
    21  O    0.000000   0.000000   0.000000   0.000000   0.000000   0.000000
    22  O    0.000000   0.000000   0.000000   0.000000   0.000000   0.000000
               7          8          9         10         11         12
     1  C    0.000000   0.000000   0.000000   0.000000   0.000000   0.000000
     2  C    0.000000   0.000000   0.000000   0.000000   0.000000   0.000000
     3  C    0.000000   0.000000   0.000000   0.000000   0.000000   0.000000
     4  C    0.000000   0.000000   0.000000   0.000000   0.000000   0.000000
     5  C    0.000000   0.000000   0.000000   0.000000   0.000000   0.000000
     6  C    0.000000   0.000000   0.000000   0.000000   0.000000   0.000000
     7  H    0.864277   0.000000   0.000000   0.000000   0.000000   0.000000
     8  H    0.000000   0.852025   0.000000   0.000000   0.000000   0.000000
     9  H    0.000000   0.000000   0.859371   0.000000   0.000000   0.000000
    10  H    0.000000   0.000000   0.000000   0.850533   0.000000   0.000000
    11  H    0.000000   0.000000   0.000000   0.000000   0.750677   0.000000
    12  H    0.000000   0.000000   0.000000   0.000000   0.000000   0.816869
    13  C    0.000000   0.000000   0.000000   0.000000   0.000000   0.000000
    14  H    0.000000   0.000000   0.000000   0.000000   0.000000   0.000000
    15  H    0.000000   0.000000   0.000000   0.000000   0.000000   0.000000
    16  H    0.000000   0.000000   0.000000   0.000000   0.000000   0.000000
    17  H    0.000000   0.000000   0.000000   0.000000   0.000000   0.000000
    18  H    0.000000   0.000000   0.000000   0.000000   0.000000   0.000000
    19  H    0.000000   0.000000   0.000000   0.000000   0.000000   0.000000
    20  O    0.000000   0.000000   0.000000   0.000000   0.000000   0.000000
    21  O    0.000000   0.000000   0.000000   0.000000   0.000000   0.000000
    22  O    0.000000   0.000000   0.000000   0.000000   0.000000   0.000000
              13         14         15         16         17         18
     1  C    0.000000   0.000000   0.000000   0.000000   0.000000   0.000000
     2  C    0.000000   0.000000   0.000000   0.000000   0.000000   0.000000
     3  C    0.000000   0.000000   0.000000   0.000000   0.000000   0.000000
     4  C    0.000000   0.000000   0.000000   0.000000   0.000000   0.000000
     5  C    0.000000   0.000000   0.000000   0.000000   0.000000   0.000000
     6  C    0.000000   0.000000   0.000000   0.000000   0.000000   0.000000
     7  H    0.000000   0.000000   0.000000   0.000000   0.000000   0.000000
     8  H    0.000000   0.000000   0.000000   0.000000   0.000000   0.000000
     9  H    0.000000   0.000000   0.000000   0.000000   0.000000   0.000000
    10  H    0.000000   0.000000   0.000000   0.000000   0.000000   0.000000
    11  H    0.000000   0.000000   0.000000   0.000000   0.000000   0.000000
    12  H    0.000000   0.000000   0.000000   0.000000   0.000000   0.000000
    13  C    4.621650   0.000000   0.000000   0.000000   0.000000   0.000000
    14  H    0.000000   0.906292   0.000000   0.000000   0.000000   0.000000
    15  H    0.000000   0.000000   0.820818   0.000000   0.000000   0.000000
    16  H    0.000000   0.000000   0.000000   0.813804   0.000000   0.000000
    17  H    0.000000   0.000000   0.000000   0.000000   0.804186   0.000000
    18  H    0.000000   0.000000   0.000000   0.000000   0.000000   0.796732
    19  H    0.000000   0.000000   0.000000   0.000000   0.000000   0.000000
    20  O    0.000000   0.000000   0.000000   0.000000   0.000000   0.000000
    21  O    0.000000   0.000000   0.000000   0.000000   0.000000   0.000000
    22  O    0.000000   0.000000   0.000000   0.000000   0.000000   0.000000
              19         20         21         22
     1  C    0.000000   0.000000   0.000000   0.000000
     2  C    0.000000   0.000000   0.000000   0.000000
     3  C    0.000000   0.000000   0.000000   0.000000
     4  C    0.000000   0.000000   0.000000   0.000000
     5  C    0.000000   0.000000   0.000000   0.000000
     6  C    0.000000   0.000000   0.000000   0.000000
     7  H    0.000000   0.000000   0.000000   0.000000
     8  H    0.000000   0.000000   0.000000   0.000000
     9  H    0.000000   0.000000   0.000000   0.000000
    10  H    0.000000   0.000000   0.000000   0.000000
    11  H    0.000000   0.000000   0.000000   0.000000
    12  H    0.000000   0.000000   0.000000   0.000000
    13  C    0.000000   0.000000   0.000000   0.000000
    14  H    0.000000   0.000000   0.000000   0.000000
    15  H    0.000000   0.000000   0.000000   0.000000
    16  H    0.000000   0.000000   0.000000   0.000000
    17  H    0.000000   0.000000   0.000000   0.000000
    18  H    0.000000   0.000000   0.000000   0.000000
    19  H    0.797481   0.000000   0.000000   0.000000
    20  O    0.000000   6.460965   0.000000   0.000000
    21  O    0.000000   0.000000   6.324013   0.000000
    22  O    0.000000   0.000000   0.000000   6.305326
          Atomic-Atomic Spin Densities.
               1          2          3          4          5          6
     1  C   -0.001197   0.000000   0.000000   0.000000   0.000000   0.000000
     2  C    0.000000   0.003717   0.000000   0.000000   0.000000   0.000000
     3  C    0.000000   0.000000  -0.279214   0.000000   0.000000   0.000000
     4  C    0.000000   0.000000   0.000000  -0.060199   0.000000   0.000000
     5  C    0.000000   0.000000   0.000000   0.000000   0.000013   0.000000
     6  C    0.000000   0.000000   0.000000   0.000000   0.000000   0.000253
     7  H    0.000000   0.000000   0.000000   0.000000   0.000000   0.000000
     8  H    0.000000   0.000000   0.000000   0.000000   0.000000   0.000000
     9  H    0.000000   0.000000   0.000000   0.000000   0.000000   0.000000
    10  H    0.000000   0.000000   0.000000   0.000000   0.000000   0.000000
    11  H    0.000000   0.000000   0.000000   0.000000   0.000000   0.000000
    12  H    0.000000   0.000000   0.000000   0.000000   0.000000   0.000000
    13  C    0.000000   0.000000   0.000000   0.000000   0.000000   0.000000
    14  H    0.000000   0.000000   0.000000   0.000000   0.000000   0.000000
    15  H    0.000000   0.000000   0.000000   0.000000   0.000000   0.000000
    16  H    0.000000   0.000000   0.000000   0.000000   0.000000   0.000000
    17  H    0.000000   0.000000   0.000000   0.000000   0.000000   0.000000
    18  H    0.000000   0.000000   0.000000   0.000000   0.000000   0.000000
    19  H    0.000000   0.000000   0.000000   0.000000   0.000000   0.000000
    20  O    0.000000   0.000000   0.000000   0.000000   0.000000   0.000000
    21  O    0.000000   0.000000   0.000000   0.000000   0.000000   0.000000
    22  O    0.000000   0.000000   0.000000   0.000000   0.000000   0.000000
               7          8          9         10         11         12
     1  C    0.000000   0.000000   0.000000   0.000000   0.000000   0.000000
     2  C    0.000000   0.000000   0.000000   0.000000   0.000000   0.000000
     3  C    0.000000   0.000000   0.000000   0.000000   0.000000   0.000000
     4  C    0.000000   0.000000   0.000000   0.000000   0.000000   0.000000
     5  C    0.000000   0.000000   0.000000   0.000000   0.000000   0.000000
     6  C    0.000000   0.000000   0.000000   0.000000   0.000000   0.000000
     7  H    0.000062   0.000000   0.000000   0.000000   0.000000   0.000000
     8  H    0.000000   0.000044   0.000000   0.000000   0.000000   0.000000
     9  H    0.000000   0.000000  -0.008387   0.000000   0.000000   0.000000
    10  H    0.000000   0.000000   0.000000  -0.000813   0.000000   0.000000
    11  H    0.000000   0.000000   0.000000   0.000000   0.072029   0.000000
    12  H    0.000000   0.000000   0.000000   0.000000   0.000000   0.007174
    13  C    0.000000   0.000000   0.000000   0.000000   0.000000   0.000000
    14  H    0.000000   0.000000   0.000000   0.000000   0.000000   0.000000
    15  H    0.000000   0.000000   0.000000   0.000000   0.000000   0.000000
    16  H    0.000000   0.000000   0.000000   0.000000   0.000000   0.000000
    17  H    0.000000   0.000000   0.000000   0.000000   0.000000   0.000000
    18  H    0.000000   0.000000   0.000000   0.000000   0.000000   0.000000
    19  H    0.000000   0.000000   0.000000   0.000000   0.000000   0.000000
    20  O    0.000000   0.000000   0.000000   0.000000   0.000000   0.000000
    21  O    0.000000   0.000000   0.000000   0.000000   0.000000   0.000000
    22  O    0.000000   0.000000   0.000000   0.000000   0.000000   0.000000
              13         14         15         16         17         18
     1  C    0.000000   0.000000   0.000000   0.000000   0.000000   0.000000
     2  C    0.000000   0.000000   0.000000   0.000000   0.000000   0.000000
     3  C    0.000000   0.000000   0.000000   0.000000   0.000000   0.000000
     4  C    0.000000   0.000000   0.000000   0.000000   0.000000   0.000000
     5  C    0.000000   0.000000   0.000000   0.000000   0.000000   0.000000
     6  C    0.000000   0.000000   0.000000   0.000000   0.000000   0.000000
     7  H    0.000000   0.000000   0.000000   0.000000   0.000000   0.000000
     8  H    0.000000   0.000000   0.000000   0.000000   0.000000   0.000000
     9  H    0.000000   0.000000   0.000000   0.000000   0.000000   0.000000
    10  H    0.000000   0.000000   0.000000   0.000000   0.000000   0.000000
    11  H    0.000000   0.000000   0.000000   0.000000   0.000000   0.000000
    12  H    0.000000   0.000000   0.000000   0.000000   0.000000   0.000000
    13  C    0.010520   0.000000   0.000000   0.000000   0.000000   0.000000
    14  H    0.000000  -0.000001   0.000000   0.000000   0.000000   0.000000
    15  H    0.000000   0.000000  -0.000008   0.000000   0.000000   0.000000
    16  H    0.000000   0.000000   0.000000  -0.000010   0.000000   0.000000
    17  H    0.000000   0.000000   0.000000   0.000000  -0.000823   0.000000
    18  H    0.000000   0.000000   0.000000   0.000000   0.000000  -0.000328
    19  H    0.000000   0.000000   0.000000   0.000000   0.000000   0.000000
    20  O    0.000000   0.000000   0.000000   0.000000   0.000000   0.000000
    21  O    0.000000   0.000000   0.000000   0.000000   0.000000   0.000000
    22  O    0.000000   0.000000   0.000000   0.000000   0.000000   0.000000
              19         20         21         22
     1  C    0.000000   0.000000   0.000000   0.000000
     2  C    0.000000   0.000000   0.000000   0.000000
     3  C    0.000000   0.000000   0.000000   0.000000
     4  C    0.000000   0.000000   0.000000   0.000000
     5  C    0.000000   0.000000   0.000000   0.000000
     6  C    0.000000   0.000000   0.000000   0.000000
     7  H    0.000000   0.000000   0.000000   0.000000
     8  H    0.000000   0.000000   0.000000   0.000000
     9  H    0.000000   0.000000   0.000000   0.000000
    10  H    0.000000   0.000000   0.000000   0.000000
    11  H    0.000000   0.000000   0.000000   0.000000
    12  H    0.000000   0.000000   0.000000   0.000000
    13  C    0.000000   0.000000   0.000000   0.000000
    14  H    0.000000   0.000000   0.000000   0.000000
    15  H    0.000000   0.000000   0.000000   0.000000
    16  H    0.000000   0.000000   0.000000   0.000000
    17  H    0.000000   0.000000   0.000000   0.000000
    18  H    0.000000   0.000000   0.000000   0.000000
    19  H   -0.001896   0.000000   0.000000   0.000000
    20  O    0.000000  -0.000038   0.000000   0.000000
    21  O    0.000000   0.000000  -0.021013   0.000000
    22  O    0.000000   0.000000   0.000000   0.280115
 Mulliken charges and spin densities:
               1          2
     1  C   -0.229582  -0.001197
     2  C   -0.237572   0.003717
     3  C   -0.391592  -0.279214
     4  C    0.544442  -0.060199
     5  C    0.408882   0.000013
     6  C   -0.449559   0.000253
     7  H    0.135723   0.000062
     8  H    0.147975   0.000044
     9  H    0.140629  -0.008387
    10  H    0.149467  -0.000813
    11  H    0.249323   0.072029
    12  H    0.183131   0.007174
    13  C   -0.621650   0.010520
    14  H    0.093708  -0.000001
    15  H    0.179182  -0.000008
    16  H    0.186196  -0.000010
    17  H    0.195814  -0.000823
    18  H    0.203268  -0.000328
    19  H    0.202519  -0.001896
    20  O   -0.460965  -0.000038
    21  O   -0.324013  -0.021013
    22  O   -0.305326   0.280115
 Sum of Mulliken charges =   0.00000   0.00000
 Mulliken charges and spin densities with hydrogens summed into heavy atoms:
               1          2
     1  C    0.054116  -0.001091
     2  C    0.052524  -0.005483
     3  C    0.040862  -0.200011
     4  C    0.544442  -0.060199
     5  C    0.502590   0.000012
     6  C   -0.084181   0.000235
    13  C   -0.020049   0.007472
    20  O   -0.460965  -0.000038
    21  O   -0.324013  -0.021013
    22  O   -0.305326   0.280115
 APT charges:
               1
     1  C   -0.163979
     2  C   -0.214169
     3  C   -0.454824
     4  C    0.993783
     5  C    0.891160
     6  C   -0.678841
     7  H    0.125946
     8  H    0.140603
     9  H    0.117941
    10  H    0.138366
    11  H   -0.007330
    12  H    0.172804
    13  C   -0.937151
    14  H    0.014702
    15  H    0.199181
    16  H    0.193580
    17  H    0.238335
    18  H    0.254403
    19  H    0.247756
    20  O   -0.697354
    21  O    0.274612
    22  O   -0.851338
 Sum of APT charges =  -0.00181
 APT charges with hydrogens summed into heavy atoms:
               1
     1  C    0.102570
     2  C    0.042138
     3  C   -0.289349
     4  C    0.993783
     5  C    0.905862
     6  C   -0.286081
    13  C   -0.196657
    20  O   -0.697354
    21  O    0.274612
    22  O   -0.851338
 Charge=              0.0000 electrons
 Dipole moment (field-independent basis, Debye):
    X=              2.1698    Y=              0.6021    Z=              2.5830  Tot=              3.4267
 N-N= 3.247022156140D+02 E-N=-5.766988739020D+02  KE=-3.407281793687D+01
  Exact polarizability:  60.848 -20.530  66.767   9.548 -10.879  80.330
 Approx polarizability:  40.365 -11.846  46.451  10.072  -9.042  52.099
 Leave Link  601 at Tue Feb 16 04:57:35 2021, MaxMem=    33554432 cpu:         0.0
 (Enter /cm/shared/apps/Gaussian09/g09/l701.exe)
 Compute integral second derivatives.
 ... and contract with generalized density number  0.
 Leave Link  701 at Tue Feb 16 04:57:35 2021, MaxMem=    33554432 cpu:         0.1
 (Enter /cm/shared/apps/Gaussian09/g09/l702.exe)
 L702 exits ... SP integral derivatives will be done elsewhere.
 Leave Link  702 at Tue Feb 16 04:57:35 2021, MaxMem=    33554432 cpu:         0.0
 (Enter /cm/shared/apps/Gaussian09/g09/l703.exe)
 Compute integral second derivatives, UseDBF=F ICtDFT=           0.
 Integral derivatives from FoFJK, PRISM(SPDF).
 Calling FoFJK, ICntrl=    100127 FMM=F ISym2X=0 I1Cent= 0 IOpClX= 1 NMat=1 NMatS=1 NMatT=0.
 FoFJK:  IHMeth=40 ICntrl=  100127 DoSepK=F KAlg= 0 I1Cent=   0 FoldK=F
 IRaf=         0 NMat=   1 IRICut=       1 DoRegI=T DoRafI=F ISym2E= 0.
 FoFCou: FMM=F IPFlag=           0 FMFlag=      100000 FMFlg1=         800
         NFxFlg=           0 DoJE=F BraDBF=F KetDBF=F FulRan=T
         wScrn=  0.000000 ICntrl=  100127 IOpCl=  1 I1Cent=           0 NGrid=           0
         NMat0=    1 NMatS0=      1 NMatT0=    0 NMatD0=    1 NMtDS0=    0 NMtDT0=    0
 Symmetry not used in FoFCou.
 Leave Link  703 at Tue Feb 16 04:57:35 2021, MaxMem=    33554432 cpu:         0.0
 (Enter /cm/shared/apps/Gaussian09/g09/l716.exe)
 Dipole        = 8.53648821D-01 2.36896940D-01 1.01622078D+00
 Polarizability= 6.08484449D+01-2.05302803D+01 6.67668466D+01
                 9.54830468D+00-1.08786414D+01 8.03295332D+01
 HyperPolar    =-2.56281384D+02 3.03660434D+02-2.99291493D+02
                 3.62256994D+02 7.71172954D+01-6.50558902D+01
                 5.68717120D+01-3.51418974D+01 7.58303116D+01
                -2.35844281D+02
 -------------------------------------------------------------------
 Center     Atomic                   Forces (Hartrees/Bohr)
 Number     Number              X              Y              Z
 -------------------------------------------------------------------
      1        6          -0.000000111    0.000000031   -0.000000389
      2        6          -0.000000090   -0.000000258    0.000000270
      3        6           0.000000409    0.000000125   -0.000000863
      4        6           0.000000335    0.000000159    0.000000617
      5        6           0.000007926   -0.000033114    0.000019598
      6        6           0.000002792   -0.000001316    0.000002808
      7        1           0.000000100    0.000000058   -0.000000005
      8        1           0.000000292   -0.000000142    0.000000183
      9        1          -0.000000035   -0.000000004   -0.000000088
     10        1           0.000000205    0.000000260    0.000000033
     11        1           0.000000475   -0.000000311    0.000000508
     12        1          -0.000000102   -0.000000315   -0.000000053
     13        6          -0.000000216    0.000000107    0.000000072
     14        1          -0.000009804   -0.000015406    0.000001653
     15        1          -0.000000131   -0.000000013    0.000000011
     16        1           0.000000252    0.000000022    0.000000019
     17        1          -0.000000174   -0.000000077   -0.000000064
     18        1          -0.000000075   -0.000000013    0.000000092
     19        1           0.000000155    0.000000329   -0.000000224
     20        8          -0.000001589    0.000049856   -0.000023789
     21        8          -0.000000158   -0.000000269   -0.000000242
     22        8          -0.000000456    0.000000293   -0.000000147
 -------------------------------------------------------------------
 Cartesian Forces:  Max     0.000049856 RMS     0.000008664
 Leave Link  716 at Tue Feb 16 04:57:35 2021, MaxMem=    33554432 cpu:         0.0
 (Enter /cm/shared/apps/Gaussian09/g09/l103.exe)

 GradGradGradGradGradGradGradGradGradGradGradGradGradGradGradGradGradGrad
 Berny optimization.
 Search for a saddle point.
 Step number   1 out of a maximum of  100
 All quantities printed in internal units (Hartrees-Bohrs-Radians)
 Swapping is turned off.
 Second derivative matrix not updated -- analytic derivatives used.
 ITU=  0
     Eigenvalues ---   -0.08114   0.00009   0.00020   0.00021   0.00037
     Eigenvalues ---    0.00043   0.00096   0.00208   0.00376   0.00807
     Eigenvalues ---    0.00924   0.01737   0.01913   0.02869   0.03429
     Eigenvalues ---    0.03640   0.03686   0.03812   0.04285   0.04672
     Eigenvalues ---    0.04931   0.05010   0.05127   0.06047   0.06299
     Eigenvalues ---    0.06389   0.07141   0.07515   0.07802   0.08342
     Eigenvalues ---    0.08986   0.10157   0.11761   0.13173   0.13586
     Eigenvalues ---    0.14927   0.18060   0.18835   0.22933   0.24071
     Eigenvalues ---    0.25538   0.30456   0.35203   0.41851   0.45193
     Eigenvalues ---    0.48102   0.50032   0.55220   0.55863   0.57295
     Eigenvalues ---    0.59396   0.60184   0.61854   0.67958   0.68523
     Eigenvalues ---    0.69858   0.71840   0.79454   1.44350   1.67076
 Eigenvectors required to have negative eigenvalues:
                          Z21       Z11       X11       X3        Y3
   1                    0.66656  -0.60667  -0.24465   0.17564  -0.10011
                          Y11       Y22       Z2        Z4        X12
   1                    0.08703  -0.07918  -0.07404  -0.07274  -0.07197
 RFO step:  Lambda0=3.787276048D-12 Lambda= 0.00000000D+00.
 Linear search not attempted -- option 19 set.
 TrRot= -0.000119 -0.000073  0.000034  0.000002 -0.000001  0.000002
 Variable       Old X    -DE/DX   Delta X   Delta X   Delta X     New X
                                 (Linear)    (Quad)   (Total)
    X1        8.00158   0.00000   0.00000   0.00033   0.00023   8.00180
    Y1       -5.86922   0.00000   0.00000   0.00013   0.00009  -5.86913
    Z1        1.61219   0.00000   0.00000   0.00002   0.00006   1.61225
    X2        9.35671   0.00000   0.00000   0.00024   0.00015   9.35686
    Y2       -7.59863   0.00000   0.00000   0.00009   0.00005  -7.59858
    Z2       -0.28405   0.00000   0.00000   0.00000   0.00004  -0.28401
    X3       10.14682   0.00000   0.00000   0.00023   0.00013  10.14696
    Y3       -6.15873   0.00000   0.00000   0.00009   0.00005  -6.15868
    Z3       -2.63917   0.00000   0.00000  -0.00002   0.00002  -2.63914
    X4       11.16718   0.00000   0.00000  -0.00001  -0.00010  11.16709
    Y4       -7.76645   0.00000   0.00000   0.00000  -0.00003  -7.76648
    Z4       -4.75046   0.00000   0.00000  -0.00007  -0.00003  -4.75049
    X5        9.59325   0.00001   0.00000  -0.00023  -0.00032   9.59292
    Y5       -7.96081  -0.00003   0.00000  -0.00028  -0.00032  -7.96113
    Z5        5.59836   0.00002   0.00000   0.00007   0.00011   5.59848
    X6        7.30075   0.00000   0.00000   0.00000  -0.00009   7.30066
    Y6       -7.28255   0.00000   0.00000   0.00008   0.00003  -7.28251
    Z6        4.03315   0.00000   0.00000  -0.00010  -0.00007   4.03309
    X7        9.18895   0.00000   0.00000   0.00049   0.00039   9.18934
    Y7       -4.20332   0.00000   0.00000  -0.00003  -0.00007  -4.20339
    Z7        2.05808   0.00000   0.00000   0.00019   0.00023   2.05831
    X8        6.25786   0.00000   0.00000   0.00047   0.00037   6.25823
    Y8       -5.09471   0.00000   0.00000   0.00038   0.00033  -5.09438
    Z8        0.73818   0.00000   0.00000  -0.00004   0.00000   0.73818
    X9       11.04052   0.00000   0.00000   0.00023   0.00014  11.04066
    Y9       -8.47067   0.00000   0.00000   0.00004   0.00000  -8.47067
    Z9        0.61026   0.00000   0.00000  -0.00004   0.00000   0.61026
   X10        8.09552   0.00000   0.00000   0.00018   0.00009   8.09561
   Y10       -9.19420   0.00000   0.00000   0.00014   0.00010  -9.19410
   Z10       -0.80178   0.00000   0.00000   0.00000   0.00004  -0.80173
   X11        8.28981   0.00000   0.00000   0.00028   0.00018   8.28999
   Y11       -5.11780   0.00000   0.00000   0.00025   0.00021  -5.11760
   Z11       -3.48080   0.00000   0.00000   0.00012   0.00016  -3.48064
   X12       11.41251   0.00000   0.00000   0.00036   0.00026  11.41277
   Y12       -4.54920   0.00000   0.00000  -0.00001  -0.00005  -4.54925
   Z12       -2.23980   0.00000   0.00000  -0.00005  -0.00001  -2.23981
   X13       13.20161   0.00000   0.00000   0.00028   0.00020  13.20181
   Y13       -9.64461   0.00000   0.00000   0.00027   0.00024  -9.64437
   Z13       -4.23122   0.00000   0.00000  -0.00025  -0.00020  -4.23142
   X14       11.06695  -0.00001   0.00000   0.00025   0.00015  11.06709
   Y14       -6.49626  -0.00002   0.00000  -0.00081  -0.00084  -6.49710
   Z14        5.73409   0.00000   0.00000  -0.00029  -0.00025   5.73384
   X15        6.00628   0.00000   0.00000   0.00004  -0.00006   6.00622
   Y15       -6.11751   0.00000   0.00000   0.00016   0.00011  -6.11741
   Z15        5.20631   0.00000   0.00000  -0.00014  -0.00010   5.20621
   X16        6.19442   0.00000   0.00000  -0.00017  -0.00026   6.19415
   Y16       -9.01268   0.00000   0.00000   0.00024   0.00018  -9.01250
   Z16        3.59265   0.00000   0.00000  -0.00027  -0.00023   3.59242
   X17       14.73020   0.00000   0.00000   0.00035   0.00026  14.73046
   Y17       -8.85786   0.00000   0.00000   0.00050   0.00047  -8.85739
   Z17       -3.06664   0.00000   0.00000  -0.00049  -0.00044  -3.06708
   X18       14.05911   0.00000   0.00000   0.00013   0.00005  14.05916
   Y18      -10.35613   0.00000   0.00000   0.00027   0.00025 -10.35588
   Z18       -5.99237   0.00000   0.00000  -0.00033  -0.00028  -5.99266
   X19       12.45802   0.00000   0.00000   0.00060   0.00052  12.45855
   Y19      -11.30587   0.00000   0.00000   0.00023   0.00020 -11.30567
   Z19       -3.22051   0.00000   0.00000  -0.00007  -0.00003  -3.22054
   X20        9.79722   0.00000   0.00000  -0.00090  -0.00099   9.79623
   Y20       -9.98044   0.00005   0.00000   0.00000  -0.00004  -9.98049
   Z20        6.65004  -0.00002   0.00000   0.00060   0.00064   6.65068
   X21        7.87900   0.00000   0.00000  -0.00068  -0.00077   7.87822
   Y21       -4.87314   0.00000   0.00000  -0.00056  -0.00061  -4.87375
   Z21       -6.19439   0.00000   0.00000   0.00020   0.00024  -6.19415
   X22       10.30133   0.00000   0.00000  -0.00043  -0.00052  10.30082
   Y22       -7.47304   0.00000   0.00000  -0.00030  -0.00034  -7.47338
   Z22       -6.89071   0.00000   0.00000   0.00006   0.00010  -6.89061
         Item               Value     Threshold  Converged?
 Maximum Force            0.000050     0.000450     YES
 RMS     Force            0.000009     0.000300     YES
 Maximum Displacement     0.000991     0.001800     YES
 RMS     Displacement     0.000299     0.001200     YES
 Predicted change in Energy=-2.706892D-09
 Optimization completed.
    -- Stationary point found.
 Lowest energy point so far.  Saving SCF results.
 GradGradGradGradGradGradGradGradGradGradGradGradGradGradGradGradGradGrad

 Largest change from initial coordinates is atom    0       0.000 Angstoms.
 Leave Link  103 at Tue Feb 16 04:57:35 2021, MaxMem=    33554432 cpu:         0.0
 (Enter /cm/shared/apps/Gaussian09/g09/l202.exe)
                          Input orientation:                          
 ---------------------------------------------------------------------
 Center     Atomic      Atomic             Coordinates (Angstroms)
 Number     Number       Type             X           Y           Z
 ---------------------------------------------------------------------
      1          6           0        4.234252   -3.105857    0.853135
      2          6           0        4.951356   -4.021023   -0.150313
      3          6           0        5.369468   -3.259059   -1.396586
      4          6           0        5.909419   -4.109826   -2.513833
      5          6           0        5.076527   -4.212681    2.962527
      6          6           0        3.863392   -3.853757    2.134253
      7          1           0        4.862581   -2.224300    1.089087
      8          1           0        3.311519   -2.696003    0.390630
      9          1           0        5.842391   -4.482487    0.322936
     10          1           0        4.283966   -4.865360   -0.424283
     11          1           0        4.386779   -2.708225   -1.841959
     12          1           0        6.039238   -2.407333   -1.185251
     13          6           0        6.985993   -5.103708   -2.239064
     14          1           0        5.856376   -3.437674    3.034352
     15          1           0        3.178387   -3.237248    2.755063
     16          1           0        3.277944   -4.769304    1.901146
     17          1           0        7.794886   -4.687379   -1.622796
     18          1           0        7.439763   -5.480226   -3.171028
     19          1           0        6.592502   -5.982809   -1.704221
     20          8           0        5.184468   -5.281424    3.519050
     21          8           0        4.169385   -2.578754   -3.277931
     22          8           0        5.451230   -3.954564   -3.646406
 ---------------------------------------------------------------------
                    Distance matrix (angstroms):
                    1          2          3          4          5
     1  C    0.000000
     2  C    1.535798   0.000000
     3  C    2.524565   1.519409   0.000000
     4  C    3.892379   2.551862   1.504524   0.000000
     5  C    2.526662   3.121245   4.471809   5.540289   0.000000
     6  C    1.529103   2.535919   3.884425   5.084929   1.512138
     7  H    1.107977   2.184538   2.739750   4.199061   2.740294
     8  H    1.110553   2.176548   2.783222   4.145345   3.468461
     9  H    2.182277   1.109440   2.162681   2.861927   2.761663
    10  H    2.174884   1.110574   2.168845   2.753025   3.539015
    11  H    2.728536   2.214464   1.211385   2.175852   5.081557
    12  H    2.810859   2.204219   1.103944   2.163438   4.624949
    13  C    4.596214   3.110440   2.593386   1.490742   5.612178
    14  H    2.738448   3.361763   4.461188   5.589003   1.101798
    15  H    2.179322   3.492697   4.694412   5.998433   2.144166
    16  H    2.186300   2.751130   4.186926   5.181854   2.161310
    17  H    4.616228   3.270764   2.823813   2.163909   5.351635
    18  H    5.666288   4.176860   3.516866   2.156816   6.694180
    19  H    4.514229   2.992757   3.001544   2.151776   5.216327
    20  O    3.569749   3.886795   5.318615   6.188204   1.209785
    21  O    4.165063   3.531800   2.332911   2.440440   6.514287
    22  O    4.737848   3.532274   2.356290   1.231570   6.624577
                    6          7          8          9         10
     6  C    0.000000
     7  H    2.178504   0.000000
     8  H    2.164528   1.765259   0.000000
     9  H    2.755469   2.578066   3.098616   0.000000
    10  H    2.783223   3.098432   2.513135   1.770202   0.000000
    11  H    4.170904   3.008588   2.478061   3.154930   2.583333
    12  H    4.224400   2.567223   3.163413   2.572866   3.114795
    13  C    5.517147   4.886354   5.119970   2.873601   3.263616
    14  H    2.226048   2.498792   3.743747   2.905788   4.058684
    15  H    1.111180   2.576441   2.429241   3.816121   3.739157
    16  H    1.111447   3.106052   2.565417   3.024797   2.535533
    17  H    5.501544   4.692492   5.302833   2.764071   3.714118
    18  H    6.601654   5.949076   6.122067   3.969240   4.228679
    19  H    5.168635   4.992152   5.094737   2.631159   2.866404
    20  O    2.387706   3.918461   4.469827   3.359510   4.066188
    21  O    5.568752   4.435877   3.769353   4.403339   3.658552
    22  O    5.995616   5.075945   4.739198   4.023355   3.546002
                   11         12         13         14         15
    11  H    0.000000
    12  H    1.803447   0.000000
    13  C    3.556957   3.045867   0.000000
    14  H    5.144922   4.347423   5.644521   0.000000
    15  H    4.782540   4.939565   6.551553   2.699963   0.000000
    16  H    4.414566   4.767546   5.568015   3.115398   1.756782
    17  H    3.947186   2.910731   1.098828   5.196981   6.525381
    18  H    4.332566   3.917582   1.102828   6.722044   7.636022
    19  H    3.950580   3.655059   1.101685   5.428966   6.251360
    20  O    5.999840   5.578663   6.035972   2.021338   2.964236
    21  O    1.458094   2.811591   3.922744   6.590038   6.149204
    22  O    2.437713   2.965967   2.378369   6.712961   6.830751
                   16         17         18         19         20
    16  H    0.000000
    17  H    5.729541   0.000000
    18  H    6.599477   1.775314   0.000000
    19  H    5.045549   1.769321   1.766908   0.000000
    20  O    2.552394   5.797047   7.062791   5.455003   0.000000
    21  O    5.693506   4.508883   4.373253   4.464936   7.384698
    22  O    6.013510   3.181939   2.551057   3.031231   7.292152
                   21         22
    21  O    0.000000
    22  O    1.916182   0.000000
 Symmetry turned off by external request.
 Stoichiometry    C7H12O3
 Framework group  C1[X(C7H12O3)]
 Deg. of freedom    60
 Full point group                 C1      NOp   1
 Rotational constants (GHZ):      2.4585080      0.5170600      0.4435019
 Leave Link  202 at Tue Feb 16 04:57:35 2021, MaxMem=    33554432 cpu:         0.0
 (Enter /cm/shared/apps/Gaussian09/g09/l716.exe)
 Dipole        = 8.53648821D-01 2.36896940D-01 1.01622078D+00
 Polarizability= 6.08484449D+01-2.05302803D+01 6.67668466D+01
                 9.54830468D+00-1.08786414D+01 8.03295332D+01
 HyperPolar    =-2.56281384D+02 3.03660434D+02-2.99291493D+02
                 3.62256994D+02 7.71172954D+01-6.50558902D+01
                 5.68717120D+01-3.51418974D+01 7.58303116D+01
                -2.35844281D+02
 Full mass-weighted force constant matrix:
 Low frequencies --- -816.0132  -11.1714   -5.0710   -3.9882    1.2683    3.0905
 Low frequencies ---    9.9044   20.8511   24.5090
 ******    1 imaginary frequencies (negative Signs) ****** 
 Diagonal vibrational polarizability:
      783.6703186     440.4219740     494.7659543
 Harmonic frequencies (cm**-1), IR intensities (KM/Mole), Raman scattering
 activities (A**4/AMU), depolarization ratios for plane and unpolarized
 incident light, reduced masses (AMU), force constants (mDyne/A),
 and normal coordinates:
                      1                      2                      3
                      A                      A                      A
 Frequencies --   -816.0114                20.2971                24.4380
 Red. masses --      1.3788                 5.0383                 7.4357
 Frc consts  --      0.5409                 0.0012                 0.0026
 IR Inten    --    183.3151                14.6485                14.3149
  Atom  AN      X      Y      Z        X      Y      Z        X      Y      Z
     1   6     0.00  -0.01   0.01     0.18   0.13   0.03    -0.04   0.12   0.05
     2   6     0.03  -0.04   0.04     0.09   0.09   0.00    -0.08   0.07   0.06
     3   6    -0.03   0.03   0.02     0.07   0.07  -0.02    -0.04   0.02   0.05
     4   6    -0.02   0.01   0.02     0.03   0.03  -0.01     0.00  -0.03   0.10
     5   6     0.00   0.00   0.00    -0.01  -0.12  -0.02    -0.03   0.05  -0.03
     6   6     0.00   0.00   0.00     0.06   0.12  -0.01    -0.06   0.15   0.06
     7   1     0.00   0.00   0.00     0.28   0.04   0.09     0.00   0.10   0.03
     8   1     0.01  -0.01  -0.01     0.24   0.27   0.03    -0.03   0.15   0.05
     9   1     0.01  -0.03   0.06     0.08   0.05  -0.03    -0.11   0.03   0.07
    10   1     0.02  -0.01   0.02     0.03   0.13   0.03    -0.12   0.09   0.08
    11   1     0.32   0.00   0.88     0.08   0.08   0.00    -0.03   0.00  -0.01
    12   1     0.24  -0.16   0.11     0.09   0.06  -0.05    -0.06   0.03   0.03
    13   6    -0.01   0.01  -0.01     0.13   0.14  -0.03     0.00  -0.01   0.19
    14   1     0.00   0.00   0.00     0.15  -0.29  -0.04    -0.21   0.19   0.35
    15   1     0.00   0.00   0.00     0.15   0.19   0.02     0.02   0.20   0.09
    16   1     0.00   0.00   0.00    -0.09   0.22  -0.07    -0.14   0.19   0.07
    17   1    -0.01   0.01   0.00     0.14   0.24  -0.10    -0.03   0.02   0.20
    18   1    -0.01   0.01   0.00     0.11   0.13  -0.04     0.04  -0.04   0.22
    19   1    -0.01   0.01   0.00     0.24   0.13   0.04    -0.02   0.01   0.21
    20   8     0.00   0.00   0.00    -0.23  -0.13   0.00     0.19  -0.18  -0.50
    21   8     0.00  -0.01  -0.13    -0.18  -0.18   0.02     0.01  -0.08  -0.02
    22   8    -0.02   0.02   0.00    -0.09  -0.10   0.02     0.03  -0.08   0.08
                      4                      5                      6
                      A                      A                      A
 Frequencies --     45.5229                71.9706                81.1075
 Red. masses --      2.9772                 1.9313                 1.3060
 Frc consts  --      0.0036                 0.0059                 0.0051
 IR Inten    --      0.5016                 3.0697                 0.2881
  Atom  AN      X      Y      Z        X      Y      Z        X      Y      Z
     1   6     0.00  -0.03  -0.04     0.04   0.01   0.03    -0.04  -0.01   0.00
     2   6     0.14   0.00   0.03     0.18   0.05   0.09    -0.03   0.00   0.00
     3   6     0.17   0.01   0.04    -0.12  -0.02  -0.05    -0.02   0.00   0.00
     4   6     0.02  -0.02  -0.01    -0.04  -0.01  -0.02    -0.01  -0.01   0.01
     5   6    -0.13   0.10   0.06    -0.04   0.00   0.06     0.03  -0.02  -0.04
     6   6    -0.08  -0.05  -0.07     0.00  -0.01   0.01     0.00   0.00   0.01
     7   1    -0.08   0.01   0.00    -0.04   0.05   0.06    -0.05   0.01  -0.02
     8   1     0.01  -0.09  -0.13     0.04  -0.07  -0.04    -0.05  -0.03   0.01
     9   1     0.14   0.07   0.10     0.34   0.34   0.08    -0.04  -0.01   0.00
    10   1     0.22  -0.05   0.00     0.37  -0.16   0.27    -0.04   0.00  -0.01
    11   1     0.23   0.15   0.12    -0.30  -0.31  -0.04    -0.01   0.00  -0.01
    12   1     0.28  -0.08   0.06    -0.29   0.16  -0.23    -0.01  -0.01   0.01
    13   6     0.02  -0.04  -0.12    -0.05  -0.01   0.01     0.04   0.04   0.01
    14   1    -0.31   0.26   0.29    -0.08   0.03   0.16     0.07  -0.06  -0.12
    15   1    -0.21  -0.10  -0.16    -0.04  -0.02  -0.02     0.04   0.01   0.04
    16   1     0.04  -0.11  -0.13     0.02  -0.01  -0.03    -0.03   0.01   0.04
    17   1     0.14  -0.02  -0.29    -0.01   0.04  -0.07     0.28   0.28  -0.46
    18   1    -0.16  -0.14  -0.17    -0.10  -0.10   0.02    -0.30  -0.33  -0.01
    19   1     0.08   0.02   0.03    -0.03   0.05   0.11     0.22   0.27   0.51
    20   8     0.02   0.04  -0.08    -0.03  -0.04  -0.01     0.00   0.00   0.01
    21   8    -0.04   0.01   0.14     0.03   0.02  -0.05     0.06   0.05  -0.02
    22   8    -0.11  -0.02   0.04     0.02   0.01  -0.04    -0.04  -0.06   0.02
                      7                      8                      9
                      A                      A                      A
 Frequencies --     95.7758               100.9678               134.3085
 Red. masses --      3.0991                 2.1660                 2.9230
 Frc consts  --      0.0167                 0.0130                 0.0311
 IR Inten    --      0.5266                 4.7089                 1.9258
  Atom  AN      X      Y      Z        X      Y      Z        X      Y      Z
     1   6    -0.02  -0.01   0.00     0.14   0.00   0.06     0.03   0.05   0.02
     2   6     0.02   0.02   0.01    -0.10  -0.06  -0.05     0.01   0.15  -0.07
     3   6    -0.02   0.01  -0.01    -0.06  -0.04  -0.03     0.06   0.17  -0.05
     4   6    -0.04  -0.04   0.01    -0.01  -0.01  -0.03    -0.01   0.03   0.02
     5   6     0.00  -0.01  -0.02    -0.08   0.06   0.18    -0.01  -0.04   0.00
     6   6     0.00  -0.02  -0.01     0.01  -0.03   0.01     0.03  -0.17  -0.10
     7   1    -0.06   0.02   0.00     0.34  -0.15   0.12     0.04   0.00   0.16
     8   1    -0.03  -0.04  -0.01     0.21   0.25   0.13     0.04   0.13   0.08
     9   1     0.05   0.07   0.01    -0.15  -0.24  -0.14     0.00   0.10  -0.10
    10   1     0.06  -0.02   0.03    -0.26   0.08  -0.07    -0.01   0.18  -0.13
    11   1    -0.05  -0.03  -0.01    -0.05  -0.04  -0.05     0.10   0.23  -0.08
    12   1    -0.02   0.02  -0.04    -0.07  -0.04   0.01     0.11   0.12  -0.05
    13   6     0.09   0.10   0.00     0.04   0.05  -0.04    -0.11  -0.04   0.16
    14   1     0.01  -0.02  -0.05    -0.25   0.21   0.47    -0.08   0.03   0.04
    15   1    -0.01  -0.03   0.00    -0.12  -0.07  -0.09    -0.16  -0.38  -0.10
    16   1     0.00  -0.03  -0.01     0.11  -0.07  -0.07     0.22  -0.25  -0.27
    17   1    -0.18   0.05   0.38     0.06   0.12  -0.11    -0.09  -0.06   0.14
    18   1     0.43   0.50   0.01     0.01   0.02  -0.05    -0.12  -0.19   0.22
    19   1     0.10  -0.16  -0.42     0.12   0.06   0.03    -0.22   0.05   0.24
    20   8     0.00   0.00   0.00     0.02  -0.01   0.01     0.05  -0.01   0.05
    21   8     0.15   0.14  -0.03     0.03   0.02  -0.06    -0.02  -0.01  -0.07
    22   8    -0.19  -0.20   0.05     0.00  -0.01  -0.04    -0.02  -0.08   0.01
                     10                     11                     12
                      A                      A                      A
 Frequencies --    240.6132               280.1490               303.8713
 Red. masses --      4.2274                 2.6265                 5.3845
 Frc consts  --      0.1442                 0.1215                 0.2929
 IR Inten    --     29.0445                15.0983                20.4953
  Atom  AN      X      Y      Z        X      Y      Z        X      Y      Z
     1   6    -0.11   0.10   0.10    -0.13  -0.08  -0.04     0.06  -0.14  -0.12
     2   6    -0.08   0.17   0.05     0.00   0.05  -0.07     0.05  -0.13  -0.11
     3   6     0.01   0.06   0.02     0.08   0.07  -0.05    -0.03   0.10   0.01
     4   6     0.01   0.03   0.05     0.03   0.01  -0.05    -0.07   0.16  -0.01
     5   6     0.00  -0.03   0.03     0.03   0.01   0.19     0.02   0.04   0.04
     6   6    -0.03  -0.04   0.06     0.09   0.07   0.12     0.08   0.05  -0.03
     7   1    -0.16   0.12   0.15    -0.33   0.11  -0.19     0.05  -0.10  -0.22
     8   1    -0.14   0.07   0.15    -0.28  -0.37  -0.01     0.04  -0.20  -0.14
     9   1    -0.09   0.16   0.07     0.00   0.09  -0.02     0.05  -0.16  -0.15
    10   1    -0.08   0.17   0.04     0.07   0.02  -0.14     0.05  -0.11  -0.20
    11   1    -0.06   0.02  -0.15     0.15   0.17  -0.12    -0.14   0.10   0.13
    12   1    -0.06   0.12  -0.04     0.14   0.01  -0.02    -0.09   0.13   0.07
    13   6     0.00  -0.04  -0.25     0.00  -0.01  -0.01    -0.16   0.13   0.11
    14   1    -0.01  -0.02   0.00    -0.03   0.03   0.44     0.01   0.04   0.16
    15   1    -0.07  -0.15   0.12     0.18   0.20   0.11     0.13   0.20  -0.10
    16   1     0.03  -0.06  -0.01     0.00   0.08   0.27     0.00   0.06   0.10
    17   1     0.11  -0.19  -0.30     0.00  -0.04   0.01    -0.18   0.13   0.15
    18   1    -0.15   0.10  -0.39     0.01  -0.05   0.01    -0.10   0.01   0.19
    19   1     0.04  -0.12  -0.35    -0.05   0.01  -0.01    -0.27   0.20   0.16
    20   8     0.03  -0.03   0.03    -0.03  -0.09   0.03    -0.05   0.00  -0.03
    21   8     0.20  -0.22  -0.06    -0.05   0.04  -0.07     0.25  -0.23   0.14
    22   8    -0.04   0.05   0.03     0.02  -0.05  -0.05    -0.13   0.06  -0.03
                     13                     14                     15
                      A                      A                      A
 Frequencies --    364.9542               391.9680               489.7757
 Red. masses --      3.7644                 2.7407                 4.4323
 Frc consts  --      0.2954                 0.2481                 0.6264
[...]
 37,-0.00003786,-0.00001597,-0.00042664,0.00039358,-0.00058973,-0.00072
 604,0.00127993,0.00174816,0.00258615,0.00422524,0.10711582,0.17403304,
 0.00042256,0.00030365,-0.00038305,0.01385390,0.01876337,-0.00053632,-0
 .02154443,-0.03240563,-0.03805730,-0.00813331,-0.02296843,-0.00869218,
 0.00003679,0.00020537,-0.00005128,-0.00008361,-0.00019241,-0.00001794,
 0.00031543,-0.00014919,-0.00057015,0.00013983,0.00004192,0.00002301,0.
 00030830,0.00048450,0.00015767,0.00068377,0.00132232,-0.00214279,-0.00
 961154,-0.00188000,-0.00278889,0.02098454,0.03544708,0.05321930,0.0002
 4598,0.00021302,0.00000573,-0.00019331,0.00050483,0.00094285,-0.005883
 00,0.02185448,0.00376980,-0.15649617,0.07595235,-0.00723340,-0.0008105
 4,0.00056828,-0.00078841,0.00017313,0.00003654,0.00065460,-0.00019404,
 -0.00007185,-0.00008781,0.00007193,-0.00003708,-0.00006979,-0.00066701
 ,0.00005686,-0.00003973,0.00016102,-0.00006353,-0.00035639,0.00053102,
 -0.00002991,0.00087662,-0.00217754,0.00034735,0.00077649,0.43950029,0.
 00003890,0.00038255,-0.00032908,0.00089671,-0.00018248,-0.00054381,0.0
 2356486,-0.01137925,-0.00701015,0.07073414,-0.14435615,0.00967462,0.00
 053066,-0.00100500,0.00060083,-0.00001034,0.00038953,-0.00052752,-0.00
 001095,0.00001495,0.00018330,-0.00014059,-0.00003946,0.00010898,0.0001
 3013,-0.00072640,-0.00012437,0.00007787,-0.00076220,-0.00012005,-0.000
 05100,-0.00085577,-0.00052423,-0.00027177,0.00088637,0.00082821,-0.045
 11789,0.42290224,0.00026371,-0.00040940,0.00029335,0.00265206,-0.00126
 373,-0.00031990,0.01002685,-0.01367833,0.00227742,-0.01122172,0.014790
 59,-0.05983588,-0.00029553,0.00016575,0.00029796,0.00046368,-0.0001984
 8,-0.00026355,-0.00002255,0.00012788,-0.00005287,-0.00013910,0.0000590
 1,-0.00022171,-0.00070303,0.00031195,0.00011020,-0.00061423,0.00009995
 ,-0.00010348,0.00206111,-0.00231820,0.00251978,0.00024015,-0.00005965,
 -0.00058271,0.01822431,-0.00456084,0.41957402,-0.00082679,0.00014626,-
 0.00064956,0.00008112,-0.00006214,0.00004610,0.00004246,-0.00004183,-0
 .00002037,-0.00004142,0.00005863,0.00002697,-0.12403188,-0.07903150,-0
 .00147184,-0.02432806,-0.01444011,-0.01560517,-0.00010768,0.00024297,-
 0.00034296,0.00002271,-0.00006236,0.00003873,-0.00003362,0.00000759,-0
 .00013202,-0.00002709,0.00001265,0.00002396,-0.00002261,0.00000621,-0.
 00000408,0.00000397,0.00001155,0.00000894,0.00002383,-0.00006217,-0.00
 000285,0.14428874,0.00066047,0.00015052,0.00009101,-0.00002223,-0.0000
 5060,0.00002414,-0.00012773,-0.00001911,0.00009212,0.00007062,-0.00006
 129,-0.00008628,-0.07562113,-0.10870525,-0.01711741,-0.00282738,0.0057
 7856,0.00315718,-0.00005982,-0.00000108,-0.00001239,-0.00008702,-0.000
 02147,0.00003233,0.00006178,0.00000510,-0.00013518,-0.00001294,-0.0000
 2103,-0.00006137,0.00003793,0.00000077,0.00003944,0.00004272,0.0000347
 3,0.00002059,-0.00007985,0.00001375,0.00004166,0.10389440,0.15105140,-
 0.00010905,-0.00037221,-0.00005639,0.00008343,-0.00004368,-0.00008029,
 0.00007137,-0.00002753,-0.00000689,-0.00006569,0.00005441,-0.00003787,
 -0.00375381,-0.01920513,-0.04802451,-0.01986610,-0.00226140,0.00557457
 ,-0.00009266,0.00040111,-0.00035459,-0.00002108,-0.00012718,0.00021380
 ,-0.00002662,-0.00004744,-0.00022267,-0.00002507,0.00003214,0.00000664
 ,-0.00001831,-0.00000423,0.00001760,-0.00002317,-0.00000319,-0.0000166
 1,0.00003732,-0.00003895,0.00004566,0.02088598,-0.00346567,0.03365136,
 -0.00623897,0.00155479,0.01542506,-0.00003338,-0.00042813,0.00043969,0
 .00005304,-0.00004888,-0.00006860,0.00000629,0.00007361,0.00024762,-0.
 02957161,0.02274255,0.00316809,-0.09862364,0.06104880,0.06266370,-0.00
 029815,-0.00034400,0.00041292,0.00079050,-0.00005934,-0.00015599,-0.00
 001543,0.00000333,0.00001997,0.00009732,0.00004396,0.00003184,-0.00001
 846,0.00004227,-0.00009317,-0.00001504,0.00000403,0.00003480,0.0000368
 7,-0.00005030,-0.00012808,0.00002738,-0.00098829,-0.00156408,0.1278982
 5,-0.00476663,0.00675475,0.00504068,-0.00039256,-0.00066080,0.00128537
 ,-0.00022697,0.00008674,0.00031121,-0.00000800,-0.00005499,-0.00010680
 ,0.01593597,-0.00557678,0.00024621,0.06391558,-0.08831363,-0.05698095,
 -0.00034546,0.00017247,0.00054053,-0.00020399,0.00056186,0.00039826,0.
 00005802,-0.00004669,-0.00002995,0.00007160,-0.00003634,-0.00008629,-0
 .00000129,0.00004580,0.00003384,0.00002982,0.00006299,0.00001067,-0.00
 004095,-0.00002190,0.00005664,-0.00031748,0.00028003,-0.00011049,-0.07
 959577,0.10398272,0.01935508,-0.00550111,-0.02630430,0.00075109,0.0011
 5226,-0.00204856,0.00010777,-0.00016986,-0.00029876,0.00007946,0.00003
 767,-0.00008849,-0.00372321,0.00264019,0.01120468,0.05773445,-0.053017
 61,-0.08554678,0.00045796,0.00028926,-0.00001364,0.00007059,0.00007224
 ,-0.00097234,-0.00005772,0.00006700,0.00001032,0.00002991,0.00006390,0
 .00001587,0.00009305,-0.00004179,0.00004624,0.00002169,-0.00001445,-0.
 00001015,-0.00006453,0.00001130,0.00006892,-0.00008496,-0.00034029,-0.
 00125557,-0.07701572,0.06321863,0.11134884,-0.00435670,-0.01316807,0.0
 0565636,-0.00084034,-0.00026547,0.00065262,0.00016527,-0.00005196,-0.0
 0031938,0.00002837,0.00015091,0.00035688,-0.02636181,-0.01640291,-0.01
 918892,-0.08004124,-0.07431702,-0.01965540,0.00001093,-0.00064787,0.00
 055038,0.00050878,0.00006363,-0.00001135,-0.00025047,-0.00004682,0.000
 20430,0.00015624,0.00011660,0.00053683,0.00000961,0.00004959,-0.000144
 33,-0.00002681,-0.00002629,0.00000298,0.00005010,-0.00003691,-0.000189
 77,-0.00215430,0.00033795,-0.00097832,0.00629062,0.00650266,0.00276841
 ,0.10648804,-0.01308015,-0.01966801,0.00979204,-0.00033595,0.00005711,
 0.00016498,0.00017452,-0.00027781,-0.00024843,-0.00005403,0.00023478,0
 .00001112,-0.00698111,0.00869107,-0.00542632,-0.07651216,-0.15509811,-
 0.03043935,-0.00051982,-0.00073325,0.00125942,0.00011263,-0.00054703,0
 .00050986,0.00005558,0.00014120,-0.00003685,0.00003629,0.00030851,0.00
 000880,-0.00004456,0.00006146,-0.00000077,-0.00003405,0.00001472,0.000
 03553,-0.00001240,-0.00019536,0.00002055,0.00119091,-0.00045568,0.0007
 3331,-0.00267879,-0.01784565,-0.01045122,0.09852720,0.18815717,0.01169
 950,0.02076616,-0.00094874,0.00061714,0.00030007,-0.00050572,-0.000174
 87,-0.00012765,0.00005991,0.00011259,-0.00004625,-0.00014887,-0.017365
 58,-0.01173003,-0.00522527,-0.02158495,-0.03148672,-0.04387149,0.00057
 153,0.00138908,-0.00222803,0.00026062,0.00066225,-0.00003685,0.0002337
 0,0.00005078,-0.00002909,0.00032350,-0.00011474,-0.00073541,0.00005996
 ,0.00005774,0.00009081,0.00000729,0.00004696,0.00004811,-0.00012804,-0
 .00001224,0.00008280,-0.00155013,0.00066097,-0.00001671,-0.00216794,-0
 .01399066,-0.00263072,0.02805376,0.03330819,0.05616966,-0.00002182,-0.
 00005226,-0.00002646,0.00004791,-0.00017001,-0.00005455,0.00021032,0.0
 0033534,0.00006612,-0.02966994,0.00280718,-0.01896204,0.00021342,-0.00
 012277,0.00024840,-0.00000865,-0.00004880,-0.00021492,0.00004749,0.000
 03830,0.00002080,-0.00002615,0.00001565,-0.00000339,-0.00015147,0.0000
 9127,0.00043842,-0.00013496,0.00000255,0.00004899,0.00013867,-0.000093
 97,0.00026429,0.00000349,0.00048205,0.00014865,-0.13335924,-0.05135483
 ,-0.07466486,-0.00000147,0.00002803,-0.00000555,-0.00001664,0.00001799
 ,0.00001950,-0.00003122,0.00000815,0.00004067,0.16571781,-0.00004045,-
 0.00005719,0.00002017,-0.00010331,-0.00006918,-0.00000809,-0.00042426,
 -0.00145006,-0.00009085,0.01445167,0.00824249,0.00804266,-0.00002166,0
 .00017026,-0.00005143,-0.00001716,-0.00008414,0.00002495,0.00004332,0.
 00001185,-0.00001760,0.00001919,0.00000859,0.00000221,0.00004692,0.000
 21256,-0.00001249,-0.00002639,0.00007990,0.00003853,-0.00010261,0.0002
 1367,-0.00030599,0.00067427,-0.00025504,-0.00017267,-0.05245125,-0.060
 10872,-0.04168615,0.00001574,0.00000987,0.00000155,0.00000798,0.000010
 53,0.00000338,0.00000063,0.00003044,0.00001053,0.05789455,0.06862619,-
 0.00010088,0.00008746,-0.00012138,-0.00033522,-0.00002774,-0.00004669,
 0.00040616,-0.00061123,-0.00041956,-0.01607927,0.00492171,-0.00378191,
 0.00022683,-0.00008313,0.00000389,-0.00015259,0.00003261,-0.00002836,0
 .00004651,-0.00002859,0.00003063,0.00001229,-0.00000933,0.00005450,0.0
 0047323,-0.00009567,-0.00021132,0.00010658,-0.00000381,0.00004107,-0.0
 0028495,0.00015620,-0.00044186,0.00026666,-0.00003424,0.00019435,-0.07
 523635,-0.04160206,-0.09145792,0.00000004,-0.00000202,-0.00002009,0.00
 003079,-0.00000819,-0.00001555,0.00004209,0.00000103,-0.00000727,0.097
 34022,0.04758949,0.10453767,-0.00002070,-0.00002819,-0.00001556,0.0000
 1716,-0.00009066,-0.00021112,-0.00065739,0.00131212,-0.00041027,-0.017
 75338,0.01982392,0.01642119,0.00009460,-0.00005647,0.00012045,-0.00001
 206,-0.00003187,-0.00010036,0.00002065,0.00001707,0.00000719,-0.000001
 36,0.00001108,0.00001204,0.00002886,0.00003857,0.00005796,-0.00002507,
 0.00003983,0.00006692,-0.00015648,0.00030526,-0.00009750,-0.00001709,0
 .00016608,0.00006427,-0.06618045,0.02448536,0.06078422,-0.00000309,0.0
 0001350,-0.00000190,-0.00000682,0.00001002,0.00001324,-0.00001011,0.00
 001134,0.00002609,0.00607943,-0.00444078,-0.01151098,0.08026702,-0.000
 01548,-0.00002254,0.00000306,-0.00005978,-0.00005177,0.00011058,0.0010
 7828,-0.00099103,0.00018445,0.02163401,-0.01313554,-0.01385663,-0.0000
 4575,0.00012811,-0.00008813,-0.00001484,-0.00004962,0.00006173,0.00000
 671,0.00000225,-0.00001692,0.00001278,0.00001012,-0.00001030,0.0000106
 7,0.00003516,-0.00001459,0.00002894,0.00006179,0.00001381,0.00028544,-
 0.00023279,0.00006998,0.00014640,-0.00002565,-0.00005895,0.02380800,-0
 .05474848,-0.05055211,0.00000979,-0.00000188,0.00000313,0.00001010,0.0
 0000585,-0.00000467,0.00001217,0.00002468,-0.00000245,0.00046811,-0.00
 137844,-0.01275454,-0.03971437,0.06585007,-0.00001304,0.00002299,-0.00
 000283,-0.00006057,0.00006193,-0.00009105,-0.00084041,0.00107285,-0.00
 019874,0.00848917,-0.00758524,0.00723291,-0.00000897,0.00003216,-0.000
 10696,-0.00006689,0.00002375,0.00010808,-0.00000137,-0.00002290,-0.000
 01148,0.00003033,-0.00001390,0.00000256,0.00006013,-0.00004561,-0.0000
 6576,0.00006915,0.00000061,-0.00001013,-0.00007704,0.00011664,-0.00020
 417,-0.00008568,-0.00009377,-0.00000002,0.06248071,-0.05235351,-0.1674
 5791,0.00000387,-0.00001159,-0.00000490,0.00002529,-0.00001246,-0.0000
 1778,0.00003451,0.00000170,-0.00002142,-0.00026312,-0.00923444,-0.0168
 9128,-0.07899234,0.06520002,0.19457791,-0.00007334,-0.00014168,0.00006
 040,-0.00020235,0.00002263,0.00003294,-0.00170989,-0.00060432,0.000371
 60,0.00838542,0.01653954,-0.00794634,0.00014891,-0.00002260,0.00015343
 ,-0.00003546,-0.00009378,-0.00011021,0.00004439,0.00001410,-0.00001938
 ,-0.00000018,0.00002808,-0.00002068,0.00019698,0.00018925,0.00029863,-
 0.00024645,0.00028212,0.00021556,0.00010925,0.00005486,0.00016019,0.00
 021246,-0.00013084,-0.00017371,-0.05594640,-0.05207731,0.03246359,-0.0
 0000273,0.00001903,-0.00000325,-0.00000618,0.00001638,0.00001670,-0.00
 001432,0.00004883,0.00005141,-0.00873238,-0.01694038,0.00396440,-0.002
 24765,-0.00630599,0.00989984,0.06372522,-0.00001538,0.00001163,-0.0000
 1093,0.00012332,-0.00044051,-0.00023982,0.00048000,0.00078085,-0.00049
 737,0.00653282,-0.03048974,0.01839175,-0.00012691,0.00033199,-0.000215
 92,-0.00002611,-0.00012705,0.00015200,-0.00000720,-0.00000941,-0.00003
 080,0.00003938,0.00001446,-0.00000118,0.00019767,-0.00005001,-0.000487
 12,0.00021684,0.00017563,-0.00008058,0.00008760,0.00005459,-0.00020402
 ,-0.00008165,-0.00007586,0.00009897,-0.05360690,-0.14930082,0.07085835
 ,0.00002131,-0.00000780,0.00001192,0.00002297,0.00000985,-0.00000837,0
 .00002358,0.00006811,-0.00000463,-0.01223201,-0.01089769,0.00267674,-0
 .00109610,0.00474430,0.00239714,0.05894993,0.18507871,-0.00004947,0.00
 014114,-0.00014300,-0.00023268,0.00007231,-0.00008548,0.00045382,-0.00
 044623,-0.00048502,-0.00499294,0.01516857,-0.00247189,0.00015860,-0.00
 020437,-0.00004552,-0.00014894,0.00013313,0.00002385,0.00000467,-0.000
 03420,0.00003973,0.00001417,-0.00001912,0.00006722,0.00028290,-0.00048
 391,-0.00042339,0.00031827,-0.00013902,0.00006153,-0.00027942,0.000158
 56,-0.00042636,0.00016184,0.00001139,0.00005999,0.03332453,0.07114195,
 -0.07515667,-0.00001154,-0.00001692,-0.00002112,0.00003281,-0.00001887
 ,-0.00002314,0.00006589,-0.00003599,-0.00003180,-0.00412865,-0.0064580
 8,0.00690382,0.01269091,0.01320973,-0.01504685,-0.03787449,-0.09133974
 ,0.08576417,-0.00330708,0.00116301,-0.00158634,0.00020822,-0.00001085,
 0.00022723,0.00050690,-0.00012879,-0.00026747,-0.00047021,0.00038727,-
 0.00001879,-0.05910693,0.05052254,-0.02600320,-0.00546032,0.03238057,-
 0.02813900,-0.00035853,-0.00033226,-0.00008678,0.00038915,0.00023674,-
 0.00057848,-0.00033703,0.00013389,-0.00020814,-0.00009786,0.00006263,0
 .00010751,-0.00013291,0.00001831,-0.00000233,-0.00015547,-0.00002213,-
 0.00002300,0.00040011,-0.00022511,0.00017598,0.00707107,-0.02530031,0.
 00543859,-0.00032191,-0.00066718,-0.00051785,0.00044846,0.00005511,0.0
 0096080,-0.00010795,0.00001352,-0.00011786,-0.00004842,0.00001719,-0.0
 0000830,-0.00008756,0.00005218,-0.00008421,0.06073443,0.00364371,0.000
 64953,-0.00014377,0.00002460,0.00065185,0.00002416,-0.00064943,0.00058
 853,0.00067237,0.00072484,-0.00093181,-0.00047041,0.03626612,-0.616842
 71,0.28158069,0.03258287,-0.02242521,0.03530724,-0.00002462,0.00057500
 ,-0.00055426,-0.00053778,-0.00005230,0.00016938,0.00021738,-0.00057438
 ,0.00019824,-0.00006078,-0.00043684,-0.00002520,0.00024510,-0.00017750
 ,0.00022829,0.00014099,-0.00007845,-0.00014259,-0.00046109,0.00081906,
 -0.00004717,-0.01158247,-0.04800063,0.02448703,-0.00132134,0.00058785,
 0.00199617,-0.00074983,-0.00285578,0.00027802,0.00010491,-0.00013727,0
 .00003648,0.00004982,-0.00011218,-0.00003971,0.00002320,-0.00028589,0.
 00012851,-0.05823251,0.68863915,-0.00121973,0.00015838,0.00019686,0.00
 005826,-0.00006368,-0.00015472,0.00049451,-0.00013055,-0.00043864,-0.0
 0036315,0.00038046,0.00060396,-0.01853341,0.28973789,-0.19978867,-0.03
 017317,0.03608445,-0.01384933,-0.00008732,-0.00032073,0.00015336,0.000
 26006,-0.00013242,-0.00000864,-0.00022389,-0.00000850,-0.00004868,0.00
 005540,0.00007571,0.00022628,-0.00020356,0.00007964,-0.00025923,-0.000
 12877,-0.00003782,0.00003033,0.00040061,-0.00020326,-0.00027748,-0.001
 15827,0.01708645,0.01060589,-0.00132458,0.00014608,-0.00340622,0.00160
 157,0.00075642,-0.00004078,-0.00013594,0.00000414,0.00003800,-0.000074
 19,0.00003992,0.00008209,-0.00009468,0.00007407,0.00009307,0.05064252,
 -0.34356710,0.20627547,-0.00006026,0.00007958,0.00012363,0.00055826,0.
 00102806,0.00006385,-0.01535101,0.00690091,-0.00456837,-0.02029408,0.0
 0878461,-0.04245741,0.00016007,-0.00030513,0.00014709,-0.00010913,0.00
 021626,-0.00002270,0.00001668,-0.00007449,0.00008684,0.00000958,-0.000
 12167,0.00009922,0.00008185,-0.00021398,-0.00003165,0.00010226,-0.0001
 7680,-0.00016227,0.00922278,-0.00313716,-0.00313328,-0.00029963,-0.000
 01188,0.00031676,0.00302153,0.00081864,0.00560070,-0.00000961,0.000002
 71,-0.00001306,0.00000194,-0.00004216,0.00001210,0.00000606,-0.0000590
 0,-0.00003017,-0.00000719,-0.00066270,-0.00040973,-0.00090870,0.000526
 12,-0.00024253,-0.00000787,0.00031640,-0.00065668,-0.00006875,0.000242
 09,-0.00006438,0.02303790,0.00025213,0.00006593,-0.00012003,0.00141509
 ,-0.00123414,0.00055788,0.00512261,-0.00526611,0.00155758,0.01934546,-
 0.00710359,0.04345398,-0.00031914,0.00033467,-0.00027612,0.00024171,-0
 .00012258,0.00013167,-0.00007756,-0.00000138,-0.00005105,-0.00012526,0
 .00003154,-0.00021907,-0.00030360,0.00003826,0.00029454,-0.00027863,0.
 00023321,-0.00013656,-0.00205111,0.00110894,0.00637451,-0.00063820,0.0
 0011731,-0.00075799,-0.00140585,0.00145554,-0.00647751,0.00001401,-0.0
 0002695,0.00002333,-0.00002282,0.00001357,-0.00004076,-0.00004357,0.00
 002872,-0.00003251,0.00011249,0.00040233,0.00057646,0.00087475,-0.0007
 8384,0.00023932,-0.00047082,-0.00024302,0.00063143,0.00015344,-0.00027
 036,0.00014049,-0.01981811,0.02059894,-0.00003669,0.00019004,-0.000609
 54,0.00756259,-0.00490529,0.00429362,-0.08092398,0.04546270,-0.0455080
 1,-0.00097986,0.00760374,0.02522220,-0.00029579,0.00040518,-0.00063213
 ,-0.00026115,-0.00007063,0.00059767,-0.00002837,-0.00015771,-0.0001312
 2,0.00030263,-0.00002824,-0.00001408,-0.00121817,-0.00031057,0.0013912
 5,0.00032023,0.00085739,-0.00015249,0.06431535,-0.03524394,0.03172064,
 0.00463657,-0.00407796,0.00233674,-0.00153864,-0.00032157,-0.00548773,
 0.00001862,-0.00005285,-0.00000527,0.00013591,-0.00005192,-0.00007054,
 0.00017474,0.00006705,-0.00005817,-0.00034404,0.00065394,0.00054506,0.
 00047417,-0.00040237,0.00013991,-0.00033932,0.00007930,0.00059467,0.00
 010947,-0.00037226,0.00032031,0.01395619,-0.01255291,0.00481693,0.0004
 6873,0.00007108,-0.00031709,0.00363086,-0.00341779,0.00135068,0.013653
 26,0.00503143,-0.01026267,-0.12661288,0.02696511,-0.16308220,-0.000554
 36,0.00035725,-0.00026875,0.00042191,-0.00037673,0.00020881,-0.0001132
 7,0.00006338,-0.00017795,-0.00017252,0.00015545,-0.00046026,-0.0006926
 5,0.00013581,0.00084714,-0.00052747,0.00054563,-0.00016505,0.00143598,
 -0.00254476,0.00934633,-0.00033042,0.00048981,0.00144709,-0.02224886,0
 .02808872,-0.04493674,0.00004189,-0.00000543,0.00003740,-0.00004778,0.
 00006078,-0.00007155,-0.00008653,0.00007542,-0.00002230,-0.00021095,0.
 00209914,0.00130130,0.00157568,-0.00189407,-0.00040830,-0.00353130,0.0
 0014440,0.00096358,0.00026096,-0.00027153,0.00005723,0.00092206,-0.002
 08886,-0.00643423,0.13263786,-0.00020633,0.00046412,-0.00028951,-0.001
 58688,-0.00014173,-0.00279129,0.00598055,0.01276407,-0.01786032,0.0155
 6066,-0.06420916,0.02792322,0.00058826,-0.00054694,0.00047605,-0.00012
 342,0.00025692,-0.00051729,0.00010549,0.00000307,0.00018580,-0.0000018
 0,-0.00011074,0.00031036,0.00071830,-0.00016103,-0.00057061,0.00007212
 ,-0.00075278,-0.00003415,-0.00300133,0.00087872,-0.00817605,-0.0004894
 1,0.00062636,0.00114737,0.03000927,-0.00315213,0.03468121,-0.00004269,
 0.00002476,-0.00003631,-0.00001164,-0.00002936,0.00003688,-0.00002062,
 -0.00012859,0.00001983,0.00168598,-0.00359618,-0.00082862,-0.00170127,
 0.00069072,0.00023130,0.00061020,0.00064218,-0.00159178,-0.00024994,0.
 00044060,-0.00017228,0.00571869,-0.00936028,0.00325082,-0.05379115,0.0
 6541856,0.00043207,0.00028550,-0.00066195,0.00314526,-0.00446047,0.000
 40666,-0.00678150,-0.02251849,-0.08039425,-0.20766660,0.07367577,-0.55
 863466,0.00013140,-0.00030838,0.00057307,0.00053664,-0.00024186,-0.000
 72864,-0.00001759,0.00019354,0.00003557,-0.00034025,0.00018186,-0.0002
 5354,-0.00030143,-0.00023650,0.00086104,-0.00060188,-0.00006765,0.0000
 1762,0.00330498,-0.00271657,0.00672067,0.00263195,-0.00008841,-0.00223
 389,-0.03597214,0.02573054,-0.02400092,-0.00001789,0.00005647,0.000015
 30,-0.00015249,0.00010624,0.00001628,-0.00021193,-0.00003346,0.0000823
 1,0.00015982,0.00164737,0.00108975,0.00069015,-0.00114566,-0.00204174,
 -0.00111331,-0.00160937,0.00075082,-0.00001403,0.00029868,-0.00036505,
 0.03139281,-0.03334669,-0.01911255,0.21081996,-0.03534427,0.67774508\\
 0.00000011,-0.00000003,0.00000039,0.00000009,0.00000026,-0.00000027,-0
 .00000041,-0.00000012,0.00000086,-0.00000034,-0.00000016,-0.00000062,-
 0.00000793,0.00003311,-0.00001960,-0.00000279,0.00000132,-0.00000281,-
 0.00000010,-0.00000006,0.,-0.00000029,0.00000014,-0.00000018,0.0000000
 3,0.,0.00000009,-0.00000021,-0.00000026,-0.00000003,-0.00000047,0.0000
 0031,-0.00000051,0.00000010,0.00000032,0.00000005,0.00000022,-0.000000
 11,-0.00000007,0.00000980,0.00001541,-0.00000165,0.00000013,0.00000001
 ,-0.00000001,-0.00000025,-0.00000002,-0.00000002,0.00000017,0.00000008
 ,0.00000006,0.00000008,0.00000001,-0.00000009,-0.00000015,-0.00000033,
 0.00000022,0.00000159,-0.00004986,0.00002379,0.00000016,0.00000027,0.0
 0000024,0.00000046,-0.00000029,0.00000015\\\@


 ERROR IS THE FORCE THAT WELDS MEN TOGETHER....
 TRUTH IS COMMUNICATED TO MEN ONLY BY DEEDS OF TRUTH.
           TOLSTOI,MY RELIGION
 Job cpu time:       0 days  0 hours  0 minutes  1.3 seconds.
 File lengths (MBytes):  RWF=     53 Int=      0 D2E=      0 Chk=      2 Scr=      1
 Normal termination of Gaussian 09 at Tue Feb 16 04:57:35 2021.
