22
Properties=species:S:1:pos:R:3:momenta:R:3:forces:R:3 pbc="F F F"
C        4.46800656      -2.94708468       0.96008749       2.03240650       0.43801768       0.61709415       0.00703748       0.00900225      -0.00994273
C        5.18714582      -3.83570401      -0.06547488      -0.98351183      -2.59711457       1.31547523       0.00266306      -0.02097588       0.00631595
C        5.40870157      -3.18386455      -1.37707546       1.75517124      -1.67713339      -2.22857464       1.15150903      -0.71121831      -1.56816496
C        5.96193814      -4.07038540      -2.62661760       0.00395374       0.63588681      -0.11318047      -0.00251677      -0.02810177      -0.04483073
C        4.86071768      -4.47671893       2.93210849      -0.51099366       0.80290992       1.15883107      -0.02123839      -0.02820637       0.02424334
C        3.83024609      -3.76329480       2.08394161      -0.31125608      -0.41792651      -0.51287910       0.01626396       0.01005534      -0.00719531
H        5.17287722      -2.20075240       1.37631493      -0.01960772       0.21057244       0.26438653       0.01605334       0.01326215       0.04295424
H        3.67310993      -2.34913971       0.46722158       0.31912319      -0.15474780      -0.13386971      -0.04021967      -0.00638742      -0.05397366
H        6.18111742      -4.15480992       0.33188591      -0.05995123       0.05432115       0.03130910       0.02182282      -0.03008909       0.01574681
H        4.62221897      -4.78953018      -0.19904103      -0.39799210      -0.09279119       0.10678460      -0.00062965      -0.06496599      -0.01505003
H        4.27340903      -3.20577326      -1.95416434       0.11522440       0.27435977      -0.45014862      -3.73525584       0.10981961      -2.46578527
H        5.57528028      -2.10554413      -1.42045748      -0.01258908       0.36529986      -0.96116706       0.03645182       0.04691237      -0.03561421
C        7.03546006      -5.03133669      -2.28644142       0.75962101       0.39776852      -0.30662308      -0.01159731      -0.02291341       0.04103076
H        5.62024150      -5.05549742       2.37928156       0.21735180       0.30260296      -0.01682629      -0.02425181       0.03298834       0.05221961
H        3.20477724      -3.10219758       2.72622741      -0.73365125       0.38766043      -0.04360936       0.02740983      -0.00630746      -0.00742800
H        3.11226402      -4.50715741       1.67368763       0.70168197       0.50824149       0.38093777       0.01059000       0.01234422       0.02492361
H        7.34102618      -5.02371805      -1.23670778       0.13649290       0.24594017       0.54963078       0.00374921      -0.02832069       0.03890724
H        7.94188778      -4.81709790      -2.87933278      -0.19590310       0.30277797       0.12096457      -0.03708908      -0.02052513      -0.04875681
H        6.73244963      -6.06162514      -2.53879425       0.23554080      -0.62278916       0.44751558      -0.00473646      -0.00026768      -0.03135407
O        4.84429113      -4.42650351       4.13914902      -0.14775279      -1.37031397       2.55504998       0.01738722      -0.01453992       0.00119771
O        3.69288784      -3.44956983      -3.05509027       0.65319764      -0.19753701       0.19029478      -1.45817588       1.22049945       4.16043577
O        5.32176732      -3.90169624      -3.64219936       0.26216218       0.99089257       1.15927716       4.02477308      -0.47206463      -0.11987924
