22
Properties=species:S:1:pos:R:3 energy=-2169.395080746778 pbc="F F F"
O       -1.71886200       2.64616100       2.31016500
C       -0.90396000       2.43951900       1.49814400
C       -0.56412400       2.67038200       0.09772500
C        0.73020400       1.95481000      -0.30958100
C        0.65580400       0.43310300      -0.13213500
C       -0.46955100      -0.26447400      -0.90341500
H       -0.33405400      -1.37070600      -0.87289400
C       -0.61204400       0.25224300      -2.34720200
O       -1.27827600       1.22038700      -2.61864800
C        0.14702800      -0.53856200      -3.36828800
H       -2.07905000      -0.31155400       1.49067300
H       -1.40736100       2.31156400      -0.55600200
H       -0.48391000       3.76082300      -0.10597800
H        0.96114500       2.20876000      -1.36374100
H        1.57659000       2.34485600       0.29211600
H        1.62850500      -0.01667500      -0.41240500
H        0.51606500       0.19993000       0.94742900
H       -0.32580300      -1.51621500      -3.54650000
H        0.16586000      -0.01820700      -4.33944000
H        1.18686500      -0.72594100      -3.07345200
O       -1.96116200      -0.93138400       0.70678800
O       -1.77136200       0.03270400      -0.32173100
22
Properties=species:S:1:pos:R:3 energy=-2169.3935891920496 pbc="F F F"
O       -1.71172204       2.66219571       2.31643187
C       -0.90958758       2.43395705       1.49404966
C       -0.56643426       2.66409003       0.09629412
C        0.72792600       1.94654112      -0.30785077
C        0.65104468       0.42488895      -0.13149378
C       -0.47317297      -0.26949995      -0.90748503
H       -0.33622341      -1.37551252      -0.88033896
C       -0.61534292       0.25473900      -2.34848240
O       -1.29126092       1.21770498      -2.61579810
C        0.15255431      -0.53060056      -3.37145873
H       -2.05984769      -0.28044328       1.49470437
H       -1.41004367       2.30380350      -0.55724368
H       -0.48527749       3.75413303      -0.10885312
H        0.96171651       2.20097312      -1.36135071
H        1.57293878       2.33542614       0.29647932
H        1.62425366      -0.02555832      -0.40918902
H        0.50786289       0.19039237       0.94759976
H       -0.29958229      -1.52301691      -3.53045894
H        0.15207201      -0.02327166      -4.35237930
H        1.20430388      -0.68723180      -3.08498635
O       -1.96133322      -0.91825903       0.72184263
O       -1.77629727       0.02607303      -0.32840481
22
Properties=species:S:1:pos:R:3 energy=-2169.3900959828075 pbc="F F F"
O       -1.70432592       2.67805194       2.32191764
C       -0.91511636       2.42856998       1.49066507
C       -0.56880743       2.65787601       0.09494065
C        0.72557260       1.93841867      -0.30610700
C        0.64628842       0.41679028      -0.13088543
C       -0.47675162      -0.27451917      -0.91140242
H       -0.33832073      -1.38027844      -0.88767697
C       -0.61869357       0.25687067      -2.34987777
O       -1.30398791       1.21468832      -2.61295533
C        0.15808968      -0.52235427      -3.37443708
H       -2.04083527      -0.24977626       1.49809465
H       -1.41267650       2.29633480      -0.55842552
H       -0.48666067       3.74748892      -0.11165082
H        0.96224691       2.19330237      -1.35893135
H        1.56927958       2.32612412       0.30079239
H        1.62005636      -0.03430126      -0.40601023
H        0.49983042       0.18103506       0.94778036
H       -0.27205769      -1.52898927      -3.51372428
H        0.13801429      -0.02995798      -4.36445636
H        1.22011761      -0.64784810      -3.09751650
O       -1.96121525      -0.90501485       0.73600435
O       -1.78149993       0.01901244      -0.33451004
22
Properties=species:S:1:pos:R:3 energy=-2169.385612372659 pbc="F F F"
O       -1.69671886       2.69370061       2.32669330
C       -0.92053234       2.42339120       1.48791037
C       -0.57122779       2.65175068       0.09366314
C        0.72315803       1.93045258      -0.30435429
C        0.64154718       0.40882212      -0.13030992
C       -0.48028882      -0.27951333      -0.91517836
H       -0.34034851      -1.38498948      -0.89489390
C       -0.62208216       0.25864299      -2.35138920
O       -1.31642753       1.21136363      -2.61012950
C        0.16360259      -0.51389726      -3.37722658
H       -2.02207862      -0.21964723       1.50087879
H       -1.41525808       2.28914865      -0.55955090
H       -0.48805326       3.74090581      -0.11436886
H        0.96273704       2.18576034      -1.35649204
H        1.56562461       2.31696705       0.30504632
H        1.61591890      -0.04288992      -0.40287588
H        0.49197665       0.17186946       0.94796958
H       -0.24327079      -1.53410883      -3.49631720
H        0.12370924      -0.03823737      -4.37567736
H        1.23429968      -0.60785601      -3.11102802
O       -1.96082786      -0.89170666       0.74933682
O       -1.78691231       0.01159497      -0.34007831
22
Properties=species:S:1:pos:R:3 energy=-2169.380676403017 pbc="F F F"
O       -1.68894604       2.70911267       2.33082985
C       -0.92582153       2.41845412       1.48570570
C       -0.57367961       2.64572479       0.09246017
C        0.72069652       1.92265277      -0.30259722
C        0.63683287       0.40099958      -0.12976724
C       -0.48378640      -0.28446414      -0.91882406
H       -0.34230929      -1.38963135      -0.90197562
C       -0.62549494       0.26006093      -2.35301778
O       -1.32855037       1.20775753      -2.60733041
C        0.16906153      -0.50530365      -3.37983075
H       -2.00364357      -0.19015047       1.50309170
H       -1.41778698       2.28223580      -0.56062323
H       -0.48944900       3.73439878      -0.11700501
H        0.96318778       2.17835965      -1.35404188
H        1.56198609       2.30797206       0.30923221
H        1.61184711      -0.05131042      -0.39979325
H        0.48431065       0.16290691       0.94816615
H       -0.21326313      -1.53835237      -3.47825889
H        0.10917928      -0.04808125      -4.38604849
H        1.24684359      -0.56732164      -3.12550649
O       -1.96019082      -0.87838968       0.76190374
O       -1.79247673       0.00389337      -0.34514121
22
Properties=species:S:1:pos:R:3 energy=-2169.375506559342 pbc="F F F"
O       -1.68105268       2.72425905       2.33439826
C       -0.93096994       2.41379215       1.48397122
C       -0.57614718       2.63980909       0.09133029
C        0.71820230       1.91502914      -0.30084038
C        0.63215746       0.39333777      -0.12925738
C       -0.48724624      -0.28935327      -0.92235071
H       -0.34420563      -1.39418976      -0.90890798
C       -0.62891811       0.26112947      -2.35476461
O       -1.34032699       1.20389664      -2.60456787
C        0.17443499      -0.49664755      -3.38225312
H       -1.98559599      -0.16138024       1.50476833
H       -1.42026180       2.27558700      -0.56164591
H       -0.49084162       3.72798297      -0.11955702
H        0.96359996       2.17111292      -1.35159000
H        1.55837624       2.29915626       0.31334118
H        1.60784683      -0.05954889      -0.39676958
H        0.47684145       0.15415878       0.94836885
H       -0.18207628      -1.54169664      -3.45957054
H        0.09444685      -0.05946104      -4.39557596
H        1.25774282      -0.52631111      -3.14093749
O       -1.95932391      -0.86511914       0.77376878
O       -1.79813553      -0.00401960      -0.34973036
22
Properties=species:S:1:pos:R:3 energy=-2169.370127883436 pbc="F F F"
O       -1.67308398       2.73911067       2.33746953
C       -0.93596356       2.40943870       1.48262706
C       -0.57861477       2.63401432       0.09027205
C        0.71568957       1.90759162      -0.29908837
C        0.62753286       0.38585183      -0.12878032
C       -0.49067018      -0.29416241      -0.92576951
H       -0.34604005      -1.39865042      -0.91567684
C       -0.63233791       0.26185358      -2.35663077
O       -1.35172796       1.19980755      -2.60185167
C        0.17969148      -0.48800308      -3.38449721
H       -1.96800174      -0.13343083       1.50594360
H       -1.42268112       2.26919300      -0.56262233
H       -0.49222484       3.72167347      -0.12202267
H        0.96397446       2.16403276      -1.34914549
H        1.55480727       2.29053675       0.31736431
H        1.60392386      -0.06759144      -0.39381216
H        0.46957813       0.14563645       0.94857641
H       -0.14975180      -1.54411842      -3.44027334
H        0.07953434      -0.07234815      -4.40426596
H        1.26699088      -0.48489052      -3.15730659
O       -1.95824688      -0.85195025       0.78499561
O       -1.80383104      -0.01207119      -0.35387734
22
Properties=species:S:1:pos:R:3 energy=-2169.364471379226 pbc="F F F"
O       -1.66508514       2.75363847       2.34011464
C       -0.94078840       2.40542717       1.48159338
C       -0.58106667       2.62835123       0.08928402
C        0.71317258       1.90035013      -0.29734577
C        0.62297102       0.37855687      -0.12833605
C       -0.49406009      -0.29887326      -0.92909168
H       -0.34781512      -1.40299905      -0.92226807
C       -0.63574056       0.26223825      -2.35861736
O       -1.36272386       1.19551690      -2.59919163
C        0.18479947      -0.47944437      -3.38656654
H       -1.95092667      -0.10639652       1.50665245
H       -1.42504352       2.26304456      -0.56355589
H       -0.49359240       3.71548541      -0.12439972
H        0.96431211       2.15713178      -1.34671749
H        1.55129139       2.28213066       0.32129272
H        1.60008403      -0.07542419      -0.39092823
H        0.46252974       0.13735128       0.94878760
H       -0.11633126      -1.54559446      -3.42038849
H        0.06446418      -0.08671399      -4.41212467
H        1.27458125      -0.44312599      -3.17459938
O       -1.95697950      -0.83893822       0.79564792
O       -1.80950559      -0.02018867      -0.35761377
22
Properties=species:S:1:pos:R:3 energy=-2169.3584476016263 pbc="F F F"
O       -1.65710137       2.76781339       2.34240458
C       -0.94543048       2.40179097       1.48079032
C       -0.58348715       2.62283056       0.08836476
C        0.71066555       1.89331458      -0.29561719
C        0.61848388       0.37146801      -0.12792456
C       -0.49741781      -0.30346751      -0.93232839
H       -0.34953337      -1.40722136      -0.92866753
C       -0.63911228       0.26228846      -2.36072546
O       -1.37328527       1.19105129      -2.59659754
C        0.18972747      -0.47104553      -3.38846465
H       -1.93443664      -0.08037158       1.50692981
H       -1.42734758       2.25713243      -0.56444999
H       -0.49493801       3.70943390      -0.12668594
H        0.96461379       2.15042259      -1.34431510
H        1.54784084       2.27395509       0.32511752
H        1.59633317      -0.08303325      -0.38812506
H        0.45570533       0.12931463       0.94900117
H       -0.08185622      -1.54610152      -3.39993716
H        0.04925879      -0.10252998      -4.41915830
H        1.28050742      -0.40108363      -3.19280142
O       -1.95554155      -0.82613827       0.80578939
O       -1.81510151      -0.02829927      -0.36097125
22
Properties=species:S:1:pos:R:3 energy=-2169.3519953636146 pbc="F F F"
O       -1.64917786       2.78160635       2.34441034
C       -0.94987579       2.39856351       1.48013802
C       -0.58586050       2.61746306       0.08751282
C        0.70818271       1.88649490      -0.29390720
C        0.61408338       0.36460036      -0.12754582
C       -0.50074520      -0.30792684      -0.93549087
H       -0.35119735      -1.41130305      -0.93486108
C       -0.64243930       0.26200917      -2.36295617
O       -1.38338274       1.18643734      -2.59407922
C        0.19444396      -0.46288068      -3.39019504
H       -1.91859750      -0.05545028       1.50681060
H       -1.42959190       2.25144737      -0.56530803
H       -0.49625542       3.70353405      -0.12887908
H        0.96488033       2.14391780      -1.34194743
H        1.54446781       2.26602717       0.32882979
H        1.59267709      -0.09040475      -0.38540992
H        0.44911396       0.12153786       0.94921587
H       -0.04636824      -1.54561638      -3.37894055
H        0.03394059      -0.11976753      -4.42537304
H        1.28476290      -0.35882955      -3.21189830
O       -1.95395280      -0.81360562       0.81548368
O       -1.82056113      -0.03633025      -0.36398138
22
Properties=species:S:1:pos:R:3 energy=-2169.345106521708 pbc="F F F"
O       -1.64135983       2.79498830       2.34620290
C       -0.95411034       2.39577820       1.47955664
C       -0.58817098       2.61225946       0.08672677
C        0.70573827       1.87990100      -0.29222041
C        0.60978145       0.35796906      -0.12719983
C       -0.50404412      -0.31223294      -0.93859030
H       -0.35280961      -1.41522984      -0.94083459
C       -0.64570784       0.26140537      -2.36531058
O       -1.39298687       1.18170166      -2.59164646
C        0.19891743      -0.45502394      -3.39176126
H       -1.90347511      -0.03172692       1.50632977
H       -1.43177505       2.24598011      -0.56613340
H       -0.49753834       3.69780096      -0.13097692
H        0.96511261       2.13763003      -1.33962361
H        1.54118453       2.25836400       0.33242066
H        1.58912163      -0.09752480      -0.38279006
H        0.44276469       0.11403235       0.94943047
H       -0.00990889      -1.54411579      -3.35741986
H        0.01853199      -0.13839805      -4.43077507
H        1.28734118      -0.31642987      -3.23187560
O       -1.95223300      -0.80139549       0.82479449
O       -1.82582679      -0.04420886      -0.36667577
22
Properties=species:S:1:pos:R:3 energy=-2169.3378277807183 pbc="F F F"
O       -1.63369248       2.80793015       2.34785325
C       -0.95812013       2.39346845       1.47896631
C       -0.59040289       2.60723053       0.08600516
C        0.70334646       1.87354279      -0.29056140
C        0.60559003       0.35158921      -0.12688657
C       -0.50731642      -0.31636749      -0.94163789
H       -0.35437268      -1.41898744      -0.94657391
C       -0.64890412       0.26048203      -2.36778977
O       -1.40206821       1.17687086      -2.58930907
C        0.20311637      -0.44754943      -3.39316681
H       -1.88913533      -0.00929575       1.50552224
H       -1.43389562       2.24072143      -0.56692951
H       -0.49878051       3.69224977      -0.13297721
H        0.96531147       2.13157189      -1.33735273
H        1.53800321       2.25098270       0.33588122
H        1.58567259      -0.10437953      -0.38027274
H        0.43666656       0.10680945       0.94964371
H        0.02748027      -1.54157653      -3.33539627
H        0.00305541      -0.15839297      -4.43537061
H        1.28823574      -0.27395069      -3.25271888
O       -1.95040192      -0.78956310       0.83378549
O       -1.83084081      -0.05186235      -0.36908602
22
Properties=species:S:1:pos:R:3 energy=-2169.330240402257 pbc="F F F"
O       -1.62622100       2.82040285       2.34943238
C       -0.96189117       2.39166766       1.47828720
C       -0.59254050       2.60238700       0.08534655
C        0.70102152       1.86743020      -0.28893476
C        0.60152106       0.34547594      -0.12660602
C       -0.51056396      -0.32031220      -0.94464484
H       -0.35588911      -1.42256156      -0.95206491
C       -0.65201437       0.25924413      -2.37039483
O       -1.41059734       1.17197156      -2.58707685
C        0.20700929      -0.44053127      -3.39441524
H       -1.87564401       0.01174893       1.50442294
H       -1.43595219       2.23566206      -0.56769975
H       -0.49997566       3.68689557      -0.13487774
H        0.96547777       2.12575600      -1.33514392
H        1.53493608       2.24390039       0.33920258
H        1.58233582      -0.11095504      -0.37786524
H        0.43082865       0.09988055       0.94985434
H        0.06575768      -1.53797534      -3.31289096
H       -0.01246673      -0.17972368      -4.43916582
H        1.28744008      -0.23145813      -3.27441374
O       -1.94847935      -0.77816365       0.84252035
O       -1.83554553      -0.05921797      -0.37124373
22
Properties=species:S:1:pos:R:3 energy=-2169.3224185707413 pbc="F F F"
O       -1.61899061       2.83237733       2.35101128
C       -0.96540947       2.39040924       1.47743943
C       -0.59456810       2.59773962       0.08474951
C        0.69877766       1.86157315      -0.28734509
C        0.59758647       0.33964436      -0.12635818
C       -0.51378860      -0.32404874      -0.94762235
H       -0.35736145      -1.42593792      -0.95729344
C       -0.65502482       0.25769666      -2.37312687
O       -1.41854483       1.16703037      -2.58495961
C        0.21056466      -0.43404357      -3.39551006
H       -1.86306701       0.03131286       1.50306681
H       -1.43794335       2.23079277      -0.56844752
H       -0.50111751       3.68175348      -0.13667625
H        0.96561237       2.12019495      -1.33300629
H        1.53199534       2.23713418       0.34237585
H        1.57911712      -0.11723746      -0.37557482
H        0.42526001       0.09325698       0.95006113
H        0.10488177      -1.53328900      -3.28992513
H       -0.02801201      -0.20236162      -4.44216692
H        1.28494770      -0.18901831      -3.29694574
O       -1.94648503      -0.76725236       0.85106277
O       -1.83988328      -0.06620297      -0.37318050
22
Properties=species:S:1:pos:R:3 energy=-2169.314391377635 pbc="F F F"
O       -1.61203412       2.84382646       2.35264768
C       -0.96867727       2.38970172       1.47635764
C       -0.59647506       2.59329195       0.08421176
C        0.69662663       1.85597674      -0.28579605
C        0.59379710       0.33410339      -0.12614245
C       -0.51698991      -0.32756751      -0.95057417
H       -0.35878979      -1.42911048      -0.96225022
C       -0.65792662       0.25585295      -2.37598169
O       -1.42589751       1.16207442      -2.58296607
C        0.21376193      -0.42813670      -3.39645375
H       -1.85144591       0.04933484       1.50147581
H       -1.43986843       2.22610405      -0.56917731
H       -0.50220218       3.67683180      -0.13836684
H        0.96571560       2.11489749      -1.33094671
H        1.52918986       2.23069545       0.34539529
H        1.57602147      -0.12321767      -0.37340612
H        0.41996424       0.08694457       0.95026208
H        0.14480068      -1.52748588      -3.26654165
H       -0.04353678      -0.22627214      -4.44437682
H        1.28075692      -0.14671554      -3.32029663
O       -1.94443443      -0.75684273       0.85948049
O       -1.84380943      -0.07276316      -0.37492628
22
Properties=species:S:1:pos:R:3 energy=-2169.3062183639718 pbc="F F F"
O       -1.60531506       2.85473400       2.35432518
C       -0.97178768       2.38941436       1.47505746
C       -0.59827943       2.58900738       0.08372640
C        0.69456637       1.85061911      -0.28428614
C        0.59015755       0.32882715      -0.12595507
C       -0.52015479      -0.33090765      -0.95346239
H       -0.36016045      -1.43211940      -0.96695299
C       -0.66073851       0.25377319      -2.37892561
O       -1.43273309       1.15713369      -2.58109898
C        0.21664182      -0.42272807      -3.39724297
H       -1.84068650       0.06593888       1.49959941
H       -1.44173089       2.22158504      -0.56989970
H       -0.50323916       3.67210070      -0.13992305
H        0.96578496       2.10985059      -1.32895945
H        1.52650984       2.22456352       0.34827295
H        1.57304909      -0.12891316      -0.37134920
H        0.41491452       0.08091789       0.95045099
H        0.18540489      -1.52048743      -3.24290462
H       -0.05887851      -0.25138678      -4.44578006
H        1.27489317      -0.10473608      -3.34442666
O       -1.94231878      -0.74671474       0.86786417
O       -1.84735236      -0.07894819      -0.37650167
22
Properties=species:S:1:pos:R:3 energy=-2169.29794698706 pbc="F F F"
O       -1.59877284       2.86508750       2.35600160
C       -0.97486541       2.38936802       1.47358271
C       -0.60000917       2.58483531       0.08328495
C        0.69258996       1.84546906      -0.28281207
C        0.58667029       0.32377771      -0.12579114
C       -0.52326574      -0.33412521      -0.95623462
H       -0.36145499      -1.43502091      -0.97142891
C       -0.66348882       0.25153386      -2.38191471
O       -1.43916090       1.15223915      -2.57935897
C        0.21926635      -0.41768888      -3.39787237
H       -1.83064735       0.08131334       1.49736185
H       -1.44353564       2.21722438      -0.57062739
H       -0.50424257       3.66751709      -0.14131126
H        0.96581692       2.10503365      -1.32703443
H        1.52393892       2.21870659       0.35102702
H        1.57019854      -0.13435068      -0.36938905
H        0.41007343       0.07514073       0.95062022
H        0.22656485      -1.51219877      -3.21922033
H       -0.07383335      -0.27762529      -4.44635482
H        1.26739127      -0.06330163      -3.36928863
O       -1.94012092      -0.73656718       0.87631239
O       -1.85056581      -0.08484383      -0.37792404
22
Properties=species:S:1:pos:R:3 energy=-2169.289567010593 pbc="F F F"
O       -1.59234688       2.87487451       2.35763474
C       -0.97803519       2.38938350       1.47197721
C       -0.60169228       2.58072513       0.08287888
C        0.69069051       1.84049535      -0.28137053
C        0.58333776       0.31891708      -0.12564578
C       -0.52630522      -0.33727628      -0.95883846
H       -0.36265495      -1.43787125      -0.97570517
C       -0.66620589       0.24921144      -2.38490502
O       -1.44529030       1.14742178      -2.57774668
C        0.22169756      -0.41289028      -3.39833656
H       -1.82118699       0.09564668       1.49468734
H       -1.44528760       2.21301073      -0.57137310
H       -0.50522655       3.66303786      -0.14249786
H        0.96580796       2.10042610      -1.32516155
H        1.52146077       2.21309281       0.35367572
H        1.56746841      -0.13955701      -0.36751065
H        0.40540354       0.06957683       0.95076212
H        0.26815098      -1.50252501      -3.19569510
H       -0.08819743      -0.30490742      -4.44607926
H        1.25828606      -0.02263389      -3.39483530
O       -1.93782369      -0.72609879       0.88492375
O       -1.85350357      -0.09053587      -0.37921075
22
Properties=species:S:1:pos:R:3 energy=-2169.2809683447254 pbc="F F F"
O       -1.58597658       2.88408257       2.35918240
C       -0.98142175       2.38928162       1.47028481
C       -0.60335672       2.57662624       0.08249969
C        0.68886112       1.83566677      -0.27995822
C        0.58016240       0.31420732      -0.12551410
C       -0.52925571      -0.34041694      -0.96122149
H       -0.36374188      -1.44072666      -0.97980894
C       -0.66891807       0.24688243      -2.38785261
O       -1.45123064       1.14271255      -2.57626276
C        0.22399749      -0.40820340      -3.39863019
H       -1.81216394       0.10912731       1.49150010
H       -1.44699168       2.20893273      -0.57214953
H       -0.50620522       3.65861991      -0.14344922
H        0.96575459       2.09600734      -1.32333071
H        1.51905907       2.20769035       0.35623726
H        1.56485724      -0.14455891      -0.36569897
H        0.40086741       0.06418995       0.95086903
H        0.31003371      -1.49137126      -3.17253523
H       -0.10176686      -0.33315293      -4.44493155
H        1.24761237       0.01704539      -3.42101946
O       -1.93540991      -0.71500828       0.89379685
O       -1.85621941      -0.09611010      -0.38037916
22
Properties=species:S:1:pos:R:3 energy=-2169.2718696342404 pbc="F F F"
O       -1.57960135       2.89269923       2.36060236
C       -0.98514983       2.38888319       1.46854932
C       -0.60503049       2.57248804       0.08213889
C        0.68709489       1.83095208      -0.27857186
C        0.57714668       0.30961046      -0.12539122
C       -0.53209970      -0.34360327      -0.96333130
H       -0.36469732      -1.44364338      -0.98376738
C       -0.67165370       0.24462330      -2.39071352
O       -1.45709129       1.13814245      -2.57490785
C        0.22622818      -0.40349941      -3.39874789
H       -1.80343672       0.12194369       1.48772435
H       -1.44865279       2.20497904      -0.57296937
H       -0.50719273       3.65422015      -0.14413174
H        0.96565327       2.09175677      -1.32153181
H        1.51671747       2.20246739       0.35872984
H        1.56236360      -0.14938314      -0.36393899
H        0.39642761       0.05894383       0.95093329
H        0.35208344      -1.47864264      -3.14994706
H       -0.11433775      -0.36228157      -4.44288985
H        1.23540504       0.05551451      -3.44779390
O       -1.93286240      -0.70299438       0.90303030
O       -1.85876710      -0.10165232      -0.38144663
22
Properties=species:S:1:pos:R:3 energy=-2169.2617181271253 pbc="F F F"
O       -1.57316091       2.90071167       2.36185242
C       -0.98934394       2.38800859       1.46681433
C       -0.60674146       2.56826010       0.08178828
C        0.68538491       1.82632033      -0.27720811
C        0.57429297       0.30508884      -0.12527235
C       -0.53481961      -0.34689083      -0.96511635
H       -0.36550304      -1.44667705      -0.98760751
C       -0.67444059       0.24250980      -2.39344399
O       -1.46298047       1.13374197      -2.57368261
C        0.22845134      -0.39865077      -3.39868465
H       -1.79486386       0.13428652       1.48328617
H       -1.45027576       2.20113847      -0.57384530
H       -0.50820315       3.64979567      -0.14451181
H        0.96550053       2.08765396      -1.31975482
H        1.51441975       2.19739235       0.36117153
H        1.55998606      -0.15405627      -0.36221580
H        0.39204703       0.05380252       0.95094731
H        0.39417039      -1.46424530      -3.12813582
H       -0.12570784      -0.39221245      -4.43993242
H        1.22169920       0.09255284      -3.47511067
O       -1.93016443      -0.68975902       0.91272049
O       -1.86120013      -0.10724795      -0.38243034
22
Properties=species:S:1:pos:R:3 energy=-2169.249629648467 pbc="F F F"
O       -1.56661483       2.90808519       2.36288937
C       -0.99411459       2.38645347       1.46510783
C       -0.60851002       2.56390262       0.08145896
C        0.68372341       1.82175706      -0.27586297
C        0.57159909       0.30062347      -0.12515864
C       -0.53739561      -0.35030281      -0.96657648
H       -0.36615390      -1.44984800      -0.99134600
C       -0.67727429       0.24057299      -2.39601080
O       -1.46893845       1.12951349      -2.57258916
C        0.23070900      -0.39360893      -3.39845715
H       -1.78630389       0.14648326       1.47822273
H       -1.45185997       2.19741090      -0.57478660
H       -0.50924722       3.64531540      -0.14455784
H        0.96529527       2.08368801      -1.31799328
H        1.51215717       2.19244925       0.36357074
H        1.55772280      -0.15859287      -0.36052153
H        0.38770720       0.04874757       0.95090627
H        0.43615095      -1.44814844      -3.10724227
H       -0.13577196      -0.42282683      -4.43604305
H        1.20654634       0.12800657      -3.50287867
O       -1.92732457      -0.67519727       0.92283256
O       -1.86355493      -0.11296008      -0.38333602
22
Properties=species:S:1:pos:R:3 energy=-2169.2349298602458 pbc="F F F"
O       -1.55995339       2.91475115       2.36366847
C       -0.99955070       2.38397512       1.46343361
C       -0.61034502       2.55939228       0.08119190
C        0.68210129       1.81727332      -0.27453129
C        0.56905583       0.29622427      -0.12506041
C       -0.53980428      -0.35381229      -0.96779124
H       -0.36666510      -1.45312178      -0.99498357
C       -0.68010044       0.23877462      -2.39839713
O       -1.47490014       1.12541577      -2.57163187
C        0.23301267      -0.38844778      -3.39811570
H       -1.77761537       0.15907324       1.47274343
H       -1.45339637       2.19381327      -0.57579741
H       -0.51033047       3.64076663      -0.14424125
H        0.96504004       2.07986278      -1.31624624
H        1.50993253       2.18764625       0.36592099
H        1.55557142      -0.16298896      -0.35885919
H        0.38341851       0.04378765       0.95080968
H        0.47786013      -1.43041899      -3.08730721
H       -0.14457546      -0.45394726      -4.43121408
H        1.19002343       0.16182538      -3.53093988
O       -1.92439067      -0.65950347       0.93312809
O       -1.86584145      -0.11881721      -0.38415169
22
Properties=species:S:1:pos:R:3 energy=-2169.217732573941 pbc="F F F"
O       -1.55316954       2.92063800       2.36414485
C       -1.00573926       2.38032753       1.46179343
C       -0.61225433       2.55470720       0.08103066
C        0.68050935       1.81288238      -0.27320784
C        0.56665336       0.29190363      -0.12498880
C       -0.54202192      -0.35738804      -0.96884701
H       -0.36705356      -1.45645924      -0.99851955
C       -0.68286033       0.23707052      -2.40058755
O       -1.48079142       1.12140383      -2.57081529
C        0.23537123      -0.38325172      -3.39771349
H       -1.76865685       0.17261407       1.46707250
H       -1.45487517       2.19036399      -0.57688142
H       -0.51145801       3.63613824      -0.14353374
H        0.96473773       2.07618340      -1.31451327
H        1.50774960       2.18299360       0.36821452
H        1.55352948      -0.16723894      -0.35723273
H        0.37919388       0.03893376       0.95065740