22
Properties=species:S:1:pos:R:3:momenta:R:3:forces:R:3 pbc="F F F"
O       -0.24384558       2.08068827       3.79059738       0.36746611       1.04017775       2.79510469       0.05740960       0.00768548       0.08166171
C       -0.31759302       1.57926151       2.71627630      -1.65250619       0.97497758      -0.56703255      -0.16374856      -0.50712554      -0.36990509
C       -0.48258376       2.18514837       1.35680412       0.65768420       0.82567894      -1.83149751       0.02341190       0.00758003       0.01397095
C        0.80498505       2.12068943       0.52698767       1.04586721       1.65473486      -0.63384423       0.02538819      -0.02978471      -0.00596461
C        1.52825720       0.76774601       0.55929826      -0.49628294       0.58711593      -0.83431855       0.01874233      -0.02340339      -0.01583579
C        0.77236891      -0.40812797      -0.05404833       1.31558630       1.08159527       0.45373484      -0.04017642       0.02030637      -0.00102545
H        1.37627257      -1.34057137       0.01390203      -0.04219165      -0.26018302      -0.03472569      -0.04909415       0.05071186       0.02377264
C        0.26968529      -0.15537743      -1.47830964       0.65964640       0.29378436       1.67554266       0.05121479       0.02491575      -0.00525247
O       -0.77612596       0.39632171      -1.71468404      -0.39974563       0.61219887       1.99142909       0.02457291       0.02166401       0.04506516
C        1.18969387      -0.66552185      -2.54561885      -0.31966479      -0.97893448       0.51100548       0.01254924       0.00453614      -0.03644172
H       -0.31274960       0.27456823       2.57701272      -0.22166847       0.32978042      -0.00956456       0.01251112       0.89880724       0.47722070
H       -1.29560706       1.63747398       0.81542752      -0.13581472      -0.03648971      -0.04702914       0.03472171      -0.00002771       0.00371286
H       -0.82080440       3.23755000       1.44226727      -0.65111968      -0.02105949      -0.41652830      -0.03845827       0.02430408      -0.00465679
H        0.55587404       2.38529922      -0.52288903       0.14115998      -0.00021820       0.42895034      -0.01624223       0.01334508      -0.00058528
H        1.50310832       2.90663345       0.88125986      -0.36741157       0.03499590       0.25205654       0.02985868       0.00094589       0.00606771
H        2.50922034       0.87102842       0.05425551       0.13020977      -0.05724726      -0.49195703       0.03045633       0.00767150      -0.02902971
H        1.77163958       0.49597027       1.61261405      -0.29560426      -0.41678723       0.19043012       0.00804076       0.00666835      -0.01950622
H        2.24270944      -0.42592736      -2.35457868       0.23021961      -0.02792747       0.03368044      -0.00126198      -0.00193205      -0.01139303
H        1.11269306      -1.75893641      -2.64435897      -0.04016151      -0.34922372      -0.06581904       0.00585393      -0.00246688       0.00223404
H        0.92534740      -0.24698818      -3.52892254      -0.24927070       0.34490696      -0.43413501       0.00091520       0.01142810      -0.02852213
O       -0.28600398      -0.87989183       1.93237430       0.19029473       1.54630538      -0.79690825       0.03450023      -0.54093965      -0.16320406
O       -0.49921231      -0.67395850       0.68664144       0.42509321       2.23129935      -0.75618864      -0.06116531       0.00511006       0.03761659
