22
Properties=species:S:1:pos:R:3 energy=-1891.950682218132 pbc="F F F"
C        5.65052500      -4.49332000       0.95675000
C        6.72986500      -4.37290000      -0.12998100
C        6.62338600      -5.50204500      -1.10508200
C        5.96605200      -5.42754500      -2.26640800
C        4.63065700      -3.38849900       2.99094800
C        5.78313200      -3.39255000       2.01355300
H        4.64004400      -4.45373600       0.50010800
H        5.70627900      -5.48790600       1.44206200
H        6.64572900      -3.39365500      -0.64259500
H        7.73916100      -4.38003500       0.33131800
H        7.12167700      -6.42848300      -0.81804900
H        5.77756800      -8.21550500      -2.47213900
C        5.22662100      -4.29705100      -2.89182400
H        4.77388600      -2.74105500       3.87283200
H        6.74141500      -3.50086800       2.56072600
H        5.83716800      -2.39631300       1.52530400
H        4.42113900      -3.93895000      -2.23345200
H        4.76453200      -4.58759200      -3.85031800
H        5.89964300      -3.45231400      -3.10112500
O        3.61472800      -4.02741800       2.83807900
O        6.54777000      -7.62969300      -2.74289800
O        5.83626700      -6.48269200      -3.18834000
22
Properties=species:S:1:pos:R:3 energy=-1891.92634601999 pbc="F F F"
C        5.64813217      -4.50987355       0.96928397
C        6.70348379      -4.37367433      -0.13532202
C        6.64021232      -5.50663494      -1.10812684
C        5.99453035      -5.42108335      -2.27139760
C        4.63990278      -3.39454353       3.00603355
C        5.77719567      -3.39269752       2.00981221
H        4.63053767      -4.48830163       0.52741727
H        5.72660924      -5.49679172       1.46304696
H        6.55653065      -3.41766264      -0.65196737
H        7.70743319      -4.31882506       0.30416435
H        7.15949450      -6.42664759      -0.82575937
H        5.76247403      -8.21994008      -2.49254379
C        5.24360095      -4.29275431      -2.89489491
H        4.77911267      -2.72633162       3.86937237
H        6.74606822      -3.47747970       2.54080033
H        5.80447196      -2.40264389       1.50763481
H        4.45724580      -3.90240066      -2.23434601
H        4.77795890      -4.60779282      -3.83601316
H        5.91114637      -3.45749879      -3.14442541
O        3.63819943      -4.05850231       2.88742220
O        6.52507606      -7.61897372      -2.70918010
O        5.84782726      -6.47907126      -3.19154242
22
Properties=species:S:1:pos:R:3 energy=-1891.8603705128812 pbc="F F F"
C        5.64580986      -4.52616710       0.98174009
C        6.67674583      -4.37507282      -0.14050169
C        6.65654123      -5.51040490      -1.11105064
C        6.02222219      -5.41409150      -2.27694384
C        4.64951328      -3.40039503       3.02092955
C        5.77083839      -3.39294519       2.00592732
H        4.62166098      -4.52293129       0.55495407
H        5.74712901      -5.50509433       1.48348497
H        6.46883181      -3.44390837      -0.66079675
H        7.67335304      -4.25944118       0.27680717
H        7.19682878      -6.42298054      -0.83313931
H        5.74813642      -8.22365408      -2.51215410
C        5.26216125      -4.28712792      -2.89806618
H        4.78425096      -2.71190189       3.86572701
H        6.74965652      -3.45414436       2.52017506
H        5.77111419      -2.40972205       1.49047729
H        4.49529445      -3.86563698      -2.23560679
H        4.79115193      -4.63025097      -3.82065872
H        5.92274219      -3.46268952      -3.18705665
O        3.66327299      -4.08869160       2.93630928
O        6.50104941      -7.60824422      -2.67621297
O        5.85893928      -6.47462918      -3.19487518
22
Properties=species:S:1:pos:R:3 energy=-1891.7624339222084 pbc="F F F"
C        5.64355752      -4.54219862       0.99410662
C        6.64967973      -4.37708801      -0.14552138
C        6.67235671      -5.51335216      -1.11385344
C        6.04912588      -5.40658146      -2.28301427
C        4.65948037      -3.40604843       3.03562098
C        5.76407027      -3.39329698       2.00190457
H        4.61341556      -4.55759729       0.58269576
H        5.76781987      -5.51281315       1.50336669
H        6.38269261      -3.47232040      -0.66909041
H        7.63699734      -4.20192886       0.24928458
H        7.23362917      -6.41749424      -0.84018102
H        5.73454296      -8.22665331      -2.53097599
C        5.28224575      -4.28023022      -2.90133989
H        4.78930058      -2.69777240       3.86190663
H        6.75218071      -3.43088411       2.49887836
H        5.73713285      -2.41753716       1.47384668
H        4.53522613      -3.82871165      -2.23723238
H        4.80408282      -4.65487754      -3.80429355
H        5.93444074      -3.46787166      -3.22900847
O        3.68991103      -4.11796511       2.98469393
O        6.47575538      -7.59752327      -2.64400272
O        5.86960001      -6.46937898      -3.19832228
22
Properties=species:S:1:pos:R:3 energy=-1891.640893380263 pbc="F F F"
C        5.64137458      -4.55796609       1.00637185
C        6.62231415      -4.37971247      -0.15038243
C        6.68764277      -5.51547400      -1.11653526
C        6.07523979      -5.39856525      -2.28957643
C        4.66979594      -3.41149865       3.05009281
C        5.75690141      -3.39375685       1.99775019
H        4.60580308      -4.59227197       0.61061967
H        5.78866336      -5.51994753       1.52268278
H        6.29817321      -3.50282691      -0.67685559
H        7.59844289      -4.14633357       0.22163463
H        7.26984501      -6.41020108      -0.84687675
H        5.72168145      -8.22894406      -2.54901555
C        5.30379826      -4.27211956      -2.90471809
H        4.79426125      -2.68394977       3.85792195
H        6.75364156      -3.40772107       2.47693839
H        5.70256607      -2.42607894       1.45775823
H        4.57698203      -3.79167737      -2.23922079
H        4.81672327      -4.68158361      -3.78695655
H        5.94625230      -3.47303068      -3.27027062
O        3.71807592      -4.14630205       3.03252980
O        6.44925932      -7.58682962      -2.61255549
O        5.87980640      -6.46333392      -3.20186775
22
Properties=species:S:1:pos:R:3 energy=-1891.502567476979 pbc="F F F"
C        5.63926048      -4.57346747       1.01852407
C        6.59467770      -4.38293875      -0.15508621
C        6.70238338      -5.51676773      -1.11909613
C        6.10056227      -5.39005488      -2.29659788
C        4.68045185      -3.41674060       3.06433001
C        5.74934193      -3.39432876       1.99347039
H        4.59882517      -4.62692762       0.63870315
H        5.80964104      -5.52649678       1.54142390
H        6.21533375      -3.53535608      -0.68409956
H        7.55776650      -4.09270078       0.19389543
H        7.30542564      -6.40111345      -0.85321869
H        5.70953971      -8.23053263      -2.56627886
C        5.32676261      -4.26285433      -2.90820284
H        4.79913267      -2.67044061       3.85378367
H        6.75403986      -3.38467737       2.45438331
H        5.66745202      -2.43533708       1.44222715
H        4.62050332      -3.75458683      -2.24157006
H        4.82904501      -4.71028027      -3.76868658
H        5.95818715      -3.47815205      -3.31083286
O        3.74772999      -4.17368164       3.07977058
O        6.42162658      -7.57618206      -2.58187738
O        5.88955538      -6.45650722      -3.20549560
22
Properties=species:S:1:pos:R:3 energy=-1891.3524645476098 pbc="F F F"
C        5.63721467      -4.58870074       1.03055155
C        6.56679903      -4.38675940      -0.15963408
C        6.71656253      -5.51723062      -1.12153608
C        6.12509169      -5.38106237      -2.30404616
C        4.69143998      -3.42176921       3.07831757
C        5.74140194      -3.39501668       1.98907142
H        4.59248350      -4.66153657       0.66692356
H        5.83073445      -5.53246025       1.55958070
H        6.13423437      -3.56983611      -0.69082959
H        7.51504495      -4.04107597       0.16610506
H        7.34032041      -6.39024373      -0.85919909
H        5.69810552      -8.23142532      -2.58277201
C        5.35108264      -4.25249289      -2.91179620
H        4.80391455      -2.65725154       3.84950250
H        6.75337640      -3.36177516       2.43124128
H        5.63182884      -2.44530129       1.42726870
H        4.66573119      -3.71749272      -2.24427820
H        4.84101974      -4.74087860      -3.74952253
H        5.97025559      -3.48322125      -3.35068493
O        3.77883559      -4.20008311       3.12636993
O        6.39292250      -7.56559934      -2.55197454
O        5.89884391      -6.44891212      -3.20918986
22
Properties=species:S:1:pos:R:3 energy=-1891.1934853184648 pbc="F F F"
C        5.63523658      -4.60366385       1.04244259
C        6.53870678      -4.39116699      -0.16402740
C        6.73016423      -5.51685997      -1.12385513
C        6.14882641      -5.37159974      -2.31188881
C        4.70275222      -3.42657940       3.09204046
C        5.73309154      -3.39582456       1.98455949
H        4.58677971      -4.69607114       0.69525823
H        5.85192515      -5.53783726       1.57714385
H        6.05493523      -3.60619518      -0.69705292
H        7.47035506      -3.99150463       0.13830160
H        7.37447866      -6.37760431      -0.86481016
H        5.68736668      -8.23162843      -2.59850107
C        5.37670217      -4.24109361      -2.91550025
H        4.80860659      -2.64438916       3.84508915
H        6.75165196      -3.33903656       2.40754047
H        5.59573467      -2.45596128       1.41289810
H        4.71260684      -3.68044773      -2.24734325
H        4.85261918      -4.77328969      -3.72950329
H        5.98246790      -3.48822373      -3.38981659
O        3.81135509      -4.22548567       3.17228153
O        6.36321242      -7.55510024      -2.52285308
O        5.90766893      -6.44056185      -3.21293452
22
Properties=species:S:1:pos:R:3 energy=-1891.0261902500765 pbc="F F F"
C        5.63332565      -4.61835479       1.05418546
C        6.51042956      -4.39615406      -0.16826752
C        6.74317245      -5.51565306      -1.12605331
C        6.17176480      -5.36167900      -2.32009339
C        4.71438043      -3.43116610       3.10548366
C        5.72442086      -3.39675638       1.97994083
H        4.58171545      -4.73050364       0.72368450
H        5.87319467      -5.54262714       1.59410401
H        5.97749645      -3.64436148      -0.70277683
H        7.42377362      -3.94403223       0.11052314
H        7.40784973      -6.36320758      -0.87004411
H        5.67731100      -8.23114825      -2.61347214
C        5.40356503      -4.22871488      -2.91931704
H        4.81320851      -2.63186008       3.84055433
H        6.74886734      -3.31648370       2.38330904
H        5.55920768      -2.46730675       1.39913060
H        4.76107143      -3.64350456      -2.25076323
H        4.86381504      -4.80742463      -3.70866774
H        5.99483436      -3.49314497      -3.42821758
O        3.84525084      -4.24986854       3.21745905
O        6.33256169      -7.54470352      -2.49451912
O        5.91602739      -6.43146966      -3.21671363
22
Properties=species:S:1:pos:R:3 energy=-1890.8487595401582 pbc="F F F"
C        5.63148133      -4.63277152       1.06576845
C        6.48199603      -4.40171318      -0.17235581
C        6.75557119      -5.51360717      -1.12813065
C        6.19390521      -5.35131217      -2.32862744
C        4.72631649      -3.43552421       3.11863214
C        5.71540000      -3.39781608       1.97522168
H        4.57729238      -4.76480639       0.75217973
H        5.89452457      -5.54682923       1.61045183
H        5.90197820      -3.68426321      -0.70800856
H        7.37537744      -3.89870426       0.08280777
H        7.44038295      -6.34706592      -0.87489318
H        5.66792628      -8.22999109      -2.62769128
C        5.43161504      -4.21541505      -2.92324862
H        4.81772002      -2.61967091       3.83590875
H        6.74502333      -3.29413871       2.35857515
H        5.52228601      -2.47932739       1.38598143
H        4.81106616      -3.60671589      -2.25453616
H        4.87457905      -4.84319449      -3.68705475
H        6.00736526      -3.49797044      -3.46587765
O        3.88048518      -4.27321095       3.26185617
O        6.30103565      -7.53442794      -2.46697880
O        5.92391623      -6.42164878      -3.22051118
22
Properties=species:S:1:pos:R:3 energy=-1890.657256068283 pbc="F F F"
C        5.62970305      -4.64691200       1.07717984
C        6.45343481      -4.40783691      -0.17629362
C        6.76734444      -5.51071961      -1.13008717
C        6.21524602      -5.34051126      -2.33745852
C        4.73855229      -3.43964867       3.13147089
C        5.70603906      -3.39900764       1.97040825
H        4.57351214      -4.79895171       0.78072127
H        5.91589641      -5.55044285       1.62617797
H        5.82844061      -3.72582854      -0.71275539
H        7.32524330      -3.85556618       0.05519357
H        7.47202767      -6.32919171      -0.87934958
H        5.65920031      -8.22816325      -2.64116459
C        5.46079604      -4.20125250      -2.92729708
H        4.82214082      -2.60782827       3.83116311
H        6.74012070      -3.27202372       2.33336697
H        5.48500781      -2.49201292       1.37346582
H        4.86253221      -3.57013442      -2.25866007
H        4.88488290      -4.88051038      -3.66470322
H        6.02007088      -3.50268561      -3.50278656
O        3.91702046      -4.29549212       3.30542654
O        6.26869966      -7.52429229      -2.44023823
O        5.93133240      -6.41111245      -3.22431120
22
Properties=species:S:1:pos:R:3 energy=-1890.4462331411958 pbc="F F F"
C        5.62799025      -4.66077422       1.08840791
C        6.42477454      -4.41451779      -0.18008231
C        6.77847618      -5.50698764      -1.13192290
C        6.23578558      -5.32928828      -2.34655415
C        4.75107969      -3.44353439       3.14398487
C        5.69634816      -3.40033501       1.96550678
H        4.57037638      -4.83291192       0.80928645
H        5.93729172      -5.55346733       1.64127310
H        5.75694383      -3.76898567      -0.71702457
H        7.27344802      -3.81466347       0.02771863
H        7.50273324      -6.30959736      -0.88340554
H        5.65112090      -8.22567102      -2.65389815
C        5.49105186      -4.18628560      -2.93146446
H        4.82647062      -2.59633877       3.82632814
H        6.73416026      -3.25016088       2.30771266
H        5.44741124      -2.50535303       1.36159901
H        4.91541077      -3.53381284      -2.26313299
H        4.89469832      -4.91928336      -3.64165202
H        6.03296151      -3.50727594      -3.53893405
O        3.95481904      -4.31669126       3.34812386
O        6.23561904      -7.51431532      -2.41430354
O        5.93827285      -6.39987390      -3.22809771
22
Properties=species:S:1:pos:R:3 energy=-1890.2096455846568 pbc="F F F"
C        5.62634238      -4.67435613       1.09944095
C        6.39604385      -4.42174838      -0.18372325
C        6.78895041      -5.50240857      -1.13363788
C        6.25552226      -5.31765526      -2.35588191
C        4.76389058      -3.44717630       3.15615906
C        5.68633742      -3.40180216       1.96052349
H        4.56788676      -4.86665933       0.83785262
H        5.95869206      -5.55590201       1.65572786
H        5.68754801      -3.81366279      -0.72082335
H        7.22006839      -3.77604163       0.00042103
H        7.53244898      -6.28829523      -0.88705328
H        5.64367585      -8.22252070      -2.66589804
C        5.52232631      -4.17057273      -2.93575283
H        4.83070913      -2.58520901       3.82141453
H        6.72714277      -3.22857229       2.28164038
H        5.40953443      -2.51933744       1.35039624
H        4.96964301      -3.49780384      -2.26795294
H        4.90399701      -4.95942453      -3.61794003
H        6.04604743      -3.51172691      -3.57430989
O        3.99384328      -4.33678759       3.38990178
O        6.20185915      -7.50451580      -2.38918084
O        5.94473452      -6.38794636      -3.23185472
22
Properties=species:S:1:pos:R:3 energy=-1889.9419661890631 pbc="F F F"
C        5.62475887      -4.68765572       1.11026724
C        6.36727138      -4.42952125      -0.18721779
C        6.79875112      -5.49697968      -1.13523212
C        6.27445442      -5.30562421      -2.36540932
C        4.77697683      -3.45056932       3.16797844
C        5.67601693      -3.40341305       1.95546462
H        4.56604492      -4.90016626       0.86639713
H        5.98007898      -5.55774622       1.66953293
H        5.62031328      -3.85978808      -0.72415901
H        7.16518121      -3.73974611      -0.02666114
H        7.56112425      -6.26529772      -0.89028501
H        5.63685295      -8.21871858      -2.67717033
C        5.55456323      -4.15417224      -2.94016425
H        4.83485606      -2.57444561       3.81643300
H        6.71906904      -3.20728011       2.25517829
H        5.37141555      -2.53395583       1.33987275
H        5.02517012      -3.46216012      -2.27311795
H        4.91275070      -5.00084497      -3.59360615
H        6.05933894      -3.51602399      -3.60890380
O        4.03405551      -4.35576034       3.43071398
O        6.16748534      -7.49491249      -2.36487628
O        5.95071436      -6.37534309      -3.23556625
22
Properties=species:S:1:pos:R:3 energy=-1889.6394031970394 pbc="F F F"
C        5.62323917      -4.70067094       1.12087506
C        6.33848576      -4.43782894      -0.19056728
C        6.80786229      -5.49069825      -1.13670565
C        6.29258042      -5.29320714      -2.37510395
C        4.79033032      -3.45370837       3.17942799
C        5.66539682      -3.40517165       1.95033638
H        4.56485252      -4.93340502       0.89489733
H        6.00143402      -5.55899929       1.68267895
H        5.55529980      -3.90728973      -0.72703881
H        7.10886329      -3.70582241      -0.05348979
H        7.58870838      -6.24061722      -0.89309296
H        5.63064001      -8.21427098      -2.68772112
C        5.58770646      -4.13714253      -2.94470078
H        4.83891112      -2.56405517       3.81139425
H        6.70993985      -3.18630646       2.22835456
H        5.33309273      -2.54919792       1.33004377
H        5.08193330      -3.42693436      -2.27862603
H        4.92093110      -5.04345578      -3.56868924
H        6.07284630      -3.52015264      -3.64270556
O        4.07541810      -4.37358873       3.47051414
O        6.13256294      -7.48552417      -2.34139596
O        5.95620931      -6.36207730      -3.23921631
22
Properties=species:S:1:pos:R:3 energy=-1889.3011456218758 pbc="F F F"
C        5.62178270      -4.71339976       1.13125269
C        6.30971562      -4.44666402      -0.19377310
C        6.81626792      -5.48356158      -1.13805850
C        6.30989863      -5.28041607      -2.38493333
C        4.80394292      -3.45658837       3.19049268
C        5.65448719      -3.40708191       1.94514501
H        4.56431121      -4.96634794       0.92333056
H        6.02273874      -5.55966054       1.69515660
H        5.49256770      -3.95609593      -0.72946999
H        7.05119141      -3.67431600      -0.08002685
H        7.61515071      -6.21426611      -0.89546935
H        5.62502483      -8.20918418      -2.69755649
C        5.62169980      -4.11954195      -2.94936449
H        4.84287401      -2.55404432       3.80630900
H        6.69975599      -3.16567347       2.20119735
H        5.29460414      -2.56505341       1.32092453
H        5.13987371      -3.39217926      -2.28447523
H        4.92850992      -5.08716802      -3.54322819
H        6.08657982      -3.52409834      -3.67570490
O        4.11789339      -4.39025198       3.50925592
O        6.09715730      -7.47636961      -2.31874601
O        5.96121633      -6.34816224      -3.24278892
22
Properties=species:S:1:pos:R:3 energy=-1888.9305797049487 pbc="F F F"
C        5.62038893      -4.72584016       1.14138842
C        6.28098961      -4.45601903      -0.19683659
C        6.82395199      -5.47556695      -1.13929070
C        6.32640741      -5.26726302      -2.39486501
C        4.81780652      -3.45920423       3.20115750
C        5.64329815      -3.40914780       1.93989673
H        4.56442263      -4.99896733       0.95167416
H        6.04397468      -5.55972931       1.70695652
H        5.43217714      -4.00613487      -0.73145982
H        6.99224239      -3.64527236      -0.10623421
H        7.64040059      -6.18625678      -0.89740641
H        5.61999520      -8.20346449      -2.70668251
C        5.65648710      -4.10142888      -2.95415743
H        4.84674445      -2.54441965       3.80118796
H        6.68851825      -3.14540327       2.17373482
H        5.25598792      -2.58151200       1.31253028
H        5.19893255      -3.35794752      -2.29066355
H        4.93545888      -5.13189280      -3.51726189
H        6.10054976      -3.52784655      -3.70789158
O        4.16144374      -4.40572930       3.54689300
O        6.06133377      -7.46746756      -2.29693256
O        5.96573234      -6.33361115      -3.24626811
22
Properties=species:S:1:pos:R:3 energy=-1888.5363613867937 pbc="F F F"
C        5.61905727      -4.73799011       1.15127054
C        6.25233634      -4.46588654      -0.19975912
C        6.83089850      -5.46671165      -1.14040227
C        6.34210513      -5.25376000      -2.40486655
C        4.83191298      -3.46155089       3.21140741
C        5.63183981      -3.41137327       1.93459778
H        4.56518843      -5.03123550       0.97990548
H        6.06512340      -5.55920493       1.71806938
H        5.37418826      -4.05733474      -0.73301557
H        6.93209302      -3.61873696      -0.13207380
H        7.66440736      -6.15660161      -0.89889635
H        5.61553893      -8.19711820      -2.71510527
C        5.69201219      -4.08286169      -2.95908168
H        4.85052215      -2.53518778       3.79604183
H        6.67622741      -3.12551799       2.14599514
H        5.21728222      -2.59856339       1.30487625
H        5.25905100      -3.32429182      -2.29718904
H        4.94174968      -5.17754119      -3.49082921
H        6.11476643      -3.53138275      -3.73925535
O        4.20603150      -4.41999992       3.58337905
O        6.02515768      -7.45883681      -2.27596173
O        5.96975431      -6.31843725      -3.24963788
22
Properties=species:S:1:pos:R:3 energy=-1888.1330832300425 pbc="F F F"
C        5.61778718      -4.74984757       1.16088731
C        6.22378447      -4.47625910      -0.20254205
C        6.83709144      -5.45699297      -1.14139325
C        6.35699013      -5.23991902      -2.41490548
C        4.84625419      -3.46362327       3.22122739
C        5.62012229      -3.41376230       1.92925437
H        4.56661028      -5.06312479       1.00800187
H        6.08616644      -5.55808673       1.72848583
H        5.31866120      -4.10962372      -0.73414449
H        6.87082010      -3.59475529      -0.15750754
H        7.68712035      -6.12531300      -0.89993140
H        5.61164381      -8.19015161      -2.72283086
C        5.72821888      -4.06389875      -2.96413929
H        4.85420680      -2.52635532       3.79088132
H        6.66288425      -3.10603977       2.11800646
H        5.17852519      -2.61619730       1.29797767
H        5.32017024      -3.29126485      -2.30404971
H        4.94735405      -5.22402428      -3.46396905
H        6.12924010      -3.53469239      -3.76978595
O        4.25161902      -4.43304306       3.61866773
O        5.98869439      -7.45049611      -2.25583965
O        5.97327918      -6.30265380      -3.25288226
22
Properties=species:S:1:pos:R:3 energy=-1887.7411034529962 pbc="F F F"
C        5.61657810      -4.76141052       1.17022703
C        6.19536262      -4.48712928      -0.20518673
C        6.84251479      -5.44640820      -1.14226365
C        6.37106080      -5.22575211      -2.42494936
C        4.86082202      -3.46541628       3.23060242
C        5.60815568      -3.41631885       1.92387274
H        4.56868981      -5.09460749       1.03594067
H        6.10708535      -5.55637404       1.73819654
H        5.26565611      -4.16293001      -0.73485384
H        6.80850043      -3.57337283      -0.18249732
H        7.70848891      -6.09240332      -0.90050377
H        5.60829766      -8.18257102      -2.72986534
C        5.76505101      -4.04459843      -2.96933232
H        4.85779813      -2.51792888       3.78571714
H        6.64848958      -3.08699073       2.08979696
H        5.13975498      -2.63440341       1.29184979
H        5.38223146      -3.25891931      -2.31124359
H        4.95224369      -5.27125316      -3.43672027
H        6.14398106      -3.53776097      -3.79947315
O        4.29816866      -4.44483794       3.65271274
O        5.95200925      -7.44246423      -2.23657243
O        5.97630389      -6.28627401      -3.25598525
22
Properties=species:S:1:pos:R:3 energy=-1887.3849964499884 pbc="F F F"
C        5.61542945      -4.77267692       1.17927799
C        6.16709942      -4.49848961      -0.20769452
C        6.84715255      -5.43495462      -1.14301352
C        6.38431549      -5.21127127      -2.43496573
C        4.87560835      -3.46692484       3.23951747
C        5.59595012      -3.41904687       1.91845911
H        4.57142868      -5.12565594       1.06369923
H        6.12786168      -5.55406619       1.74719216
H        5.21523314      -4.21718179      -0.73515088
H        6.74521081      -3.55463505      -0.20700508
H        7.72846238      -6.05788497      -0.90060569
H        5.60548826      -8.17438273      -2.73621482
C        5.80245241      -4.02501911      -2.97466284
H        4.86129583      -2.50991508       3.78056001
H        6.63304417      -3.06839301       2.06139479
H        5.10100975      -2.65317144       1.28650783
H        5.44517584      -3.22730789      -2.31876870
H        4.95639033      -5.31913891      -3.40912177
H        6.15899960      -3.54057393      -3.82830669
O        4.34564275      -4.45536378       3.68546773
O        5.91516758      -7.43475993      -2.21816621
O        5.97882540      -6.26931114      -3.25893088
22
Properties=species:S:1:pos:R:3 energy=-1887.0900373665818 pbc="F F F"
C        5.61434070      -4.78364474       1.18802845
C        6.13902352      -4.51033267      -0.21006679
C        6.85098870      -5.42262951      -1.14364286
C        6.39675257      -5.19648852      -2.44492214
C        4.89060505      -3.46814389       3.24795753
C        5.58351569      -3.42195033       1.91301972
H        4.57482854      -5.15624244       1.09125490
H        6.14847699      -5.55116252       1.75546335
H        5.16745242      -4.27230725      -0.73504287
H        6.68102805      -3.53858742      -0.23099272
H        7.74699010      -6.02177033      -0.90022939
H        5.60320341      -8.16559304      -2.74188536
C        5.84036690      -4.00521916      -2.98013290
H        4.86469963      -2.50232051       3.77542063
H        6.61654882      -3.05026874       2.03282812
H        5.06232763      -2.67249108       1.28196704
H        5.50894457      -3.19648328      -2.32662308
H        4.95976568      -5.36759261      -3.38121242
H        6.17430599      -3.54311675      -3.85627631
O        4.39400367      -4.46459980       3.71688638
O        5.87823475      -7.42740200      -2.20062710
O        5.98084064      -6.25177841      -3.26170317
22
Properties=species:S:1:pos:R:3 energy=-1886.8763638739672 pbc="F F F"
C        5.61331126      -4.79431195       1.19646671
C        6.11116354      -4.52265100      -0.21230489
C        6.85400724      -5.40943018      -1.14415171
C        6.40837039      -5.18141588      -2.45478614
C        4.90580401      -3.46906833       3.25590757
C        5.57086252      -3.42503319       1.90756078
H        4.57889104      -5.18633932       1.11858501
H        6.16891281      -5.54766234       1.76300078
H        5.12237410      -4.32823457      -0.73453708
H        6.61602893      -3.52527544      -0.25442216
H        7.76402141      -5.98407179      -0.89936707
H        5.60143092      -8.15620824      -2.74688305
C        5.87873831      -3.98525694      -2.98574458
H        4.86800922      -2.49515180       3.77030971
H        6.59900431      -3.03264005       2.00412511
H        5.02374679      -2.69235205       1.27824265
H        5.57347883      -3.16649817      -2.33480474
H        4.96234144      -5.41652536      -3.35303111
H        6.18991053      -3.54537491      -3.88337178
O        4.44321375      -4.47252521       3.74692235
O        5.84127608      -7.42040919      -2.18396123
O        5.98234656      -6.23368907      -3.26428613
22
Properties=species:S:1:pos:R:3 energy=-1886.752183891315 pbc="F F F"
C        5.61234059      -4.80467653       1.20458105
C        6.08354813      -4.53543717      -0.21441018
C        6.85619215      -5.39535390      -1.14454011
C        6.41916733      -5.16606537      -2.46452527
C        4.92119709      -3.46969309       3.26335256
C        5.55800071      -3.42829941       1.90208853
H        4.58361783      -5.21591889       1.14566692
H        6.18915070      -5.54356500       1.76979509
H        5.08005834      -4.38489196      -0.73364076
H        6.55029027      -3.51474458      -0.27725531
H        7.77950566      -5.94480173      -0.89801097
H        5.60015859      -8.14623464      -2.75121398
C        5.91751048      -3.96519083      -2.99149993
H        4.87122431      -2.48841555       3.76523796
H        6.58041142      -3.01552907       1.97531392
H        4.98530536      -2.71274403       1.27534990
H        5.63871981      -3.13740526      -2.34331171