22
Properties=species:S:1:pos:R:3:momenta:R:3:forces:R:3 pbc="F F F"
O       -2.66993562      -1.27238099       1.28492038       1.14486227      -0.39104855       0.25822691       0.05293335       0.05837247       0.02291645
C       -2.87914448      -0.15752757       1.70468560       0.46108005       0.13987639      -0.24230561      -0.04195433       0.04118287      -0.00552878
C       -1.97112364       1.03019170       1.48112004       0.36648328      -0.18731281      -0.67173108       0.00130316      -0.01652265      -0.02716074
C       -0.66395344       0.67327955       0.77179607      -0.42411594      -0.35978247      -1.04379304       0.01674816      -0.02469454       0.01030501
C       -0.82750958       0.49344898      -0.74341541       0.41304306      -0.75038412      -1.42935270      -0.01330795       0.04485712       0.01089100
C        0.39709536       0.97422173      -1.49173455       1.99363014       0.46701621       0.36195367      -0.07514594       0.11907129       0.32210189
H        1.29330803       1.03088837      -0.84201088       0.09562741       0.08653523      -0.11961848       0.08211895       0.01053786       0.03233845
C        0.21873125       2.28064463      -2.25355077      -0.36047880       0.67449016      -0.18436481      -0.01167370      -0.05817028      -0.04670575
O       -0.80902766       2.91473430      -2.21611471       0.26207111       0.26382283       0.85886608      -0.01778602      -0.02675933       0.00085757
C        1.42062126       2.74742174      -3.02009970      -0.68957727      -0.14957399      -0.54190713       0.00289836      -0.00124049      -0.04242208
H       -3.78113438       0.07516264       2.29396233       0.06220875      -0.03113867      -0.19410153      -0.05261419      -0.02747052       0.02042180
H       -2.52353135       1.80335773       0.89889184      -0.10776785       0.19894291       0.01157225       0.01617660      -0.02600742       0.03179372
H       -1.73783368       1.51842261       2.45259690       0.07606753       0.18495102      -0.10684734      -0.07719008      -0.06252064      -0.02808398
H        0.07940013       1.46301076       0.99419517      -0.16392144      -0.09881827      -0.11750626       0.01682374       0.01462924      -0.00939881
H       -0.25658600      -0.26779542       1.19449382      -0.12926032       0.20540402      -0.28084130       0.02042146      -0.02319556       0.08000561
H       -1.00918650      -0.58433096      -0.98475387      -0.23906400       0.04419062      -0.31918394      -0.01058938       0.02535519       0.02091617
H       -1.73819648       1.00602535      -1.11416957       0.09061559      -0.11724072      -0.36968947      -0.03157109       0.08136871      -0.00923575
H        2.35738612       2.68130106      -2.45718217      -0.08114812      -0.02474022       0.03258701      -0.00561008      -0.02046170       0.04589413
H        1.55891003       2.15476587      -3.93702847       0.04731302       0.16650500       0.18590662      -0.01980540      -0.01643359      -0.00783019
H        1.30208974       3.79707145      -3.33085166      -0.32561012      -0.16018309      -0.24717724      -0.00298136       0.00927829      -0.03783656
O        0.17777287      -0.97398419      -2.75669345      -2.06786856       1.44236564       3.22806448      -0.07868111      -0.00565766      -0.00607168
O        0.89917173      -0.08871225      -2.48126423      -0.37588225       0.37923716       2.11906444       0.22948685      -0.09551865      -0.37816748
