 Entering Gaussian System, Link 0=g09
 Initial command:
 /apps/applications/gaussian/G09.D01/2/default/g09/l1.exe "/nobackup/chmrsh/Scratch/Gau-77859.inp" -scrdir="/nobackup/chmrsh/Scratch/"
 Entering Link 1 = /apps/applications/gaussian/G09.D01/2/default/g09/l1.exe PID=     77860.
  
 Copyright (c) 1988,1990,1992,1993,1995,1998,2003,2009,2013,
            Gaussian, Inc.  All Rights Reserved.
  
 This is part of the Gaussian(R) 09 program.  It is based on
 the Gaussian(R) 03 system (copyright 2003, Gaussian, Inc.),
 the Gaussian(R) 98 system (copyright 1998, Gaussian, Inc.),
 the Gaussian(R) 94 system (copyright 1995, Gaussian, Inc.),
 the Gaussian 92(TM) system (copyright 1992, Gaussian, Inc.),
 the Gaussian 90(TM) system (copyright 1990, Gaussian, Inc.),
 the Gaussian 88(TM) system (copyright 1988, Gaussian, Inc.),
 the Gaussian 86(TM) system (copyright 1986, Carnegie Mellon
 University), and the Gaussian 82(TM) system (copyright 1983,
 Carnegie Mellon University). Gaussian is a federally registered
 trademark of Gaussian, Inc.
  
 This software contains proprietary and confidential information,
 including trade secrets, belonging to Gaussian, Inc.
  
 This software is provided under written license and may be
 used, copied, transmitted, or stored only in accord with that
 written license.
  
 The following legend is applicable only to US Government
 contracts under FAR:
  
                    RESTRICTED RIGHTS LEGEND
  
 Use, reproduction and disclosure by the US Government is
 subject to restrictions as set forth in subparagraphs (a)
 and (c) of the Commercial Computer Software - Restricted
 Rights clause in FAR 52.227-19.
  
 Gaussian, Inc.
 340 Quinnipiac St., Bldg. 40, Wallingford CT 06492
  
  
 ---------------------------------------------------------------
 Warning -- This program may not be used in any manner that
 competes with the business of Gaussian, Inc. or will provide
 assistance to any competitor of Gaussian, Inc.  The licensee
 of this program is prohibited from giving any competitor of
 Gaussian, Inc. access to this program.  By using this program,
 the user acknowledges that Gaussian, Inc. is engaged in the
 business of creating and licensing software in the field of
 computational chemistry and represents and warrants to the
 licensee that it is not a competitor of Gaussian, Inc. and that
 it will not use this program in any manner prohibited above.
 ---------------------------------------------------------------
  

 Cite this work as:
 Gaussian 09, Revision D.01,
 M. J. Frisch, G. W. Trucks, H. B. Schlegel, G. E. Scuseria, 
 M. A. Robb, J. R. Cheeseman, G. Scalmani, V. Barone, B. Mennucci, 
 G. A. Petersson, H. Nakatsuji, M. Caricato, X. Li, H. P. Hratchian, 
 A. F. Izmaylov, J. Bloino, G. Zheng, J. L. Sonnenberg, M. Hada, 
 M. Ehara, K. Toyota, R. Fukuda, J. Hasegawa, M. Ishida, T. Nakajima, 
 Y. Honda, O. Kitao, H. Nakai, T. Vreven, J. A. Montgomery, Jr., 
 J. E. Peralta, F. Ogliaro, M. Bearpark, J. J. Heyd, E. Brothers, 
 K. N. Kudin, V. N. Staroverov, T. Keith, R. Kobayashi, J. Normand, 
 K. Raghavachari, A. Rendell, J. C. Burant, S. S. Iyengar, J. Tomasi, 
 M. Cossi, N. Rega, J. M. Millam, M. Klene, J. E. Knox, J. B. Cross, 
 V. Bakken, C. Adamo, J. Jaramillo, R. Gomperts, R. E. Stratmann, 
 O. Yazyev, A. J. Austin, R. Cammi, C. Pomelli, J. W. Ochterski, 
 R. L. Martin, K. Morokuma, V. G. Zakrzewski, G. A. Voth, 
 P. Salvador, J. J. Dannenberg, S. Dapprich, A. D. Daniels, 
 O. Farkas, J. B. Foresman, J. V. Ortiz, J. Cioslowski, 
 and D. J. Fox, Gaussian, Inc., Wallingford CT, 2013.
 
 ******************************************
 Gaussian 09:  ES64L-G09RevD.01 24-Apr-2013
                 6-Jan-2021 
 ******************************************
 ----------------------------------------------------------------------
 #P b3lyp/3-21G scf=qc opt(calcall, ts, noeigentest, cartesian,maxcycle
 =100)
 ----------------------------------------------------------------------
 1/5=1,6=100,10=4,11=1,14=-1,18=10,26=3,38=1/1,3;
 2/12=2,17=6,18=5,29=2,40=1/2;
 3/5=5,11=2,16=1,25=1,30=1,71=2,74=-5,140=1/1,2,3;
 4//1;
 5/5=2,8=3,38=5/8;
 8/6=4,10=90,11=11/1;
 11/6=1,8=1,9=11,15=111,16=1/1,2,10;
 10/6=1/2;
 6/7=2,8=2,9=2,10=2,18=1,28=1/1;
 7/7=1,10=1,25=1/1,2,3,16;
 1/5=1,6=100,10=4,11=1,14=-1,18=10,26=3/3(3);
 2/29=1/2;
 7/7=1,8=1,9=1,25=1,44=-1/16;
 99/12=1/99;
 2/29=1/2;
 3/5=5,11=2,16=1,25=1,30=1,71=2,74=-5,140=1/1,2,3;
 4/5=5,16=3,69=1/1;
 5/5=2,8=3,38=5/8;
 8/6=4,10=90,11=11/1;
 11/6=1,8=1,9=11,15=111,16=1/1,2,10;
 10/6=1/2;
 7/7=1,10=1,25=1/1,2,3,16;
 1/5=1,6=100,10=4,11=1,14=-1,18=10,26=3/3(-8);
 2/29=1/2;
 6/7=2,8=2,9=2,10=2,18=1,19=2,28=1/1;
 7/7=1,8=1,9=1,25=1,44=-1/16;
 99/12=1/99;
 Leave Link    1 at Wed Jan  6 00:37:27 2021, MaxMem=           0 cpu:         0.1
 (Enter /apps/applications/gaussian/G09.D01/2/default/g09/l101.exe)
 ------------------------------
 Gaussian input prepared by ASE
 ------------------------------
 Symbolic Z-matrix:
 Charge =  0 Multiplicity = 2
 C                     0.34087   0.41889  -1.17445 
 C                    -0.27207  -0.26819  -0.07294 
 H                    -0.0526    0.06951  -2.14472 
 H                     1.43604   0.28118  -1.18855 
 H                     0.155     1.50868  -1.11445 
 C                    -0.86016  -0.98461   0.75514 
 H                    -1.39189  -1.62592   1.36714 
 O                    -0.10278   0.42329   1.58031 
 H                     0.74759   0.17718   1.99252 
 
 NAtoms=      9 NQM=        9 NQMF=       0 NMMI=      0 NMMIF=      0
                NMic=       0 NMicF=      0.
                    Isotopes and Nuclear Properties:
 (Nuclear quadrupole moments (NQMom) in fm**2, nuclear magnetic moments (NMagM)
  in nuclear magnetons)

  Atom         1           2           3           4           5           6           7           8           9
 IAtWgt=          12          12           1           1           1          12           1          16           1
 AtmWgt=  12.0000000  12.0000000   1.0078250   1.0078250   1.0078250  12.0000000   1.0078250  15.9949146   1.0078250
 NucSpn=           0           0           1           1           1           0           1           0           1
 AtZEff=   0.0000000   0.0000000   0.0000000   0.0000000   0.0000000   0.0000000   0.0000000   0.0000000   0.0000000
 NQMom=    0.0000000   0.0000000   0.0000000   0.0000000   0.0000000   0.0000000   0.0000000   0.0000000   0.0000000
 NMagM=    0.0000000   0.0000000   2.7928460   2.7928460   2.7928460   0.0000000   2.7928460   0.0000000   2.7928460
 AtZNuc=   6.0000000   6.0000000   1.0000000   1.0000000   1.0000000   6.0000000   1.0000000   8.0000000   1.0000000
 Leave Link  101 at Wed Jan  6 00:37:27 2021, MaxMem=    33554432 cpu:         0.2
 (Enter /apps/applications/gaussian/G09.D01/2/default/g09/l103.exe)

 GradGradGradGradGradGradGradGradGradGradGradGradGradGradGradGradGradGrad
 Berny optimization.
 Initialization pass.
 No Z-matrix variables, so optimization will use Cartesian coordinates.
 Trust Radius=3.00D-01 FncErr=1.00D-07 GrdErr=1.00D-06
 Number of steps in this run=    100 maximum allowed number of steps=    100.
 Search for a saddle point of order  1.
 GradGradGradGradGradGradGradGradGradGradGradGradGradGradGradGradGradGrad

 Leave Link  103 at Wed Jan  6 00:37:27 2021, MaxMem=    33554432 cpu:         0.0
 (Enter /apps/applications/gaussian/G09.D01/2/default/g09/l202.exe)
 ---------------------------------------------------------------------------------------------------
                            Z-MATRIX (ANGSTROMS AND DEGREES)
   CD    Cent   Atom    N1       Length/X        N2       Alpha/Y        N3        Beta/Z          J
 ---------------------------------------------------------------------------------------------------
      1      1  C        0   0.340873          0.418886         -1.174450
      2      2  C        0  -0.272072         -0.268191         -0.072935
      3      3  H        0  -0.052602          0.069508         -2.144720
      4      4  H        0   1.436038          0.281183         -1.188553
      5      5  H        0   0.154996          1.508675         -1.114454
      6      6  C        0  -0.860161         -0.984608          0.755144
      7      7  H        0  -1.391886         -1.625923          1.367138
      8      8  O        0  -0.102781          0.423295          1.580307
      9      9  H        0   0.747594          0.177176          1.992524
 ---------------------------------------------------------------------------------------------------
                         Z-Matrix orientation:                         
 ---------------------------------------------------------------------
 Center     Atomic      Atomic             Coordinates (Angstroms)
 Number     Number       Type             X           Y           Z
 ---------------------------------------------------------------------
      1          6           0        0.340873    0.418886   -1.174450
      2          6           0       -0.272072   -0.268191   -0.072935
      3          1           0       -0.052602    0.069508   -2.144720
      4          1           0        1.436038    0.281183   -1.188553
      5          1           0        0.154996    1.508675   -1.114454
      6          6           0       -0.860161   -0.984608    0.755144
      7          1           0       -1.391886   -1.625923    1.367138
      8          8           0       -0.102781    0.423295    1.580307
      9          1           0        0.747594    0.177176    1.992524
 ---------------------------------------------------------------------
                    Distance matrix (angstroms):
                    1          2          3          4          5
     1  C    0.000000
     2  C    1.435657   0.000000
     3  H    1.103772   2.110569   0.000000
     4  H    1.103878   2.112831   1.781884   0.000000
     5  H    1.107155   2.103427   1.782062   1.775752   0.000000
     6  C    2.671256   1.242906   3.189440   3.263849   3.277561
     7  H    3.693692   2.274033   4.123265   4.262131   4.286823
     8  O    2.790257   1.800007   3.742127   3.170922   2.916546
     9  H    3.202119   2.346102   4.215293   3.256382   3.431818
                    6          7          8          9
     6  C    0.000000
     7  H    1.033708   0.000000
     8  O    1.799086   2.430334   0.000000
     9  H    2.337889   2.866993   0.976542   0.000000
 Stoichiometry    C3H5O(2)
 Framework group  C1[X(C3H5O)]
 Deg. of freedom    21
 Full point group                 C1      NOp   1
 Largest Abelian subgroup         C1      NOp   1
 Largest concise Abelian subgroup C1      NOp   1
                         Standard orientation:                         
 ---------------------------------------------------------------------
 Center     Atomic      Atomic             Coordinates (Angstroms)
 Number     Number       Type             X           Y           Z
 ---------------------------------------------------------------------
      1          6           0       -1.596074   -0.109125    0.005191
      2          6           0       -0.240465    0.363564    0.005382
      3          1           0       -2.313629    0.705835   -0.192971
      4          1           0       -1.872111   -0.570707    0.969189
      5          1           0       -1.746634   -0.880248   -0.774868
      6          6           0        0.860044    0.941064    0.019144
      7          1           0        1.725905    1.505713    0.016026
      8          8           0        1.094652   -0.837381   -0.117985
      9          1           0        1.308216   -1.234562    0.748198
 ---------------------------------------------------------------------
 Rotational constants (GHZ):     16.1583036      6.4531868      4.8162925
 Leave Link  202 at Wed Jan  6 00:37:27 2021, MaxMem=    33554432 cpu:         0.0
 (Enter /apps/applications/gaussian/G09.D01/2/default/g09/l301.exe)
 Standard basis: 3-21G (6D, 7F)
 Ernie: Thresh=  0.10000D-02 Tol=  0.10000D-05 Strict=F.
 There are    46 symmetry adapted cartesian basis functions of A   symmetry.
 There are    46 symmetry adapted basis functions of A   symmetry.
    46 basis functions,    75 primitive gaussians,    46 cartesian basis functions
    16 alpha electrons       15 beta electrons
       nuclear repulsion energy       110.0556532066 Hartrees.
 IExCor=  402 DFT=T Ex+Corr=B3LYP ExCW=0 ScaHFX=  0.200000
 ScaDFX=  0.800000  0.720000  1.000000  0.810000 ScalE2=  1.000000  1.000000
 IRadAn=      0 IRanWt=     -1 IRanGd=            0 ICorTp=0 IEmpDi=  4
 NAtoms=    9 NActive=    9 NUniq=    9 SFac= 1.00D+00 NAtFMM=   60 NAOKFM=F Big=F
 Integral buffers will be    131072 words long.
 Raffenetti 2 integral format.
 Two-electron integral symmetry is turned on.
 Leave Link  301 at Wed Jan  6 00:37:28 2021, MaxMem=    33554432 cpu:         0.1
 (Enter /apps/applications/gaussian/G09.D01/2/default/g09/l302.exe)
 NPDir=0 NMtPBC=     1 NCelOv=     1 NCel=       1 NClECP=     1 NCelD=      1
         NCelK=      1 NCelE2=     1 NClLst=     1 CellRange=     0.0.
 One-electron integrals computed using PRISM.
 NBasis=    46 RedAO= T EigKep=  1.51D-03  NBF=    46
 NBsUse=    46 1.00D-06 EigRej= -1.00D+00 NBFU=    46
 Precomputing XC quadrature grid using
 IXCGrd= 4 IRadAn=           0 IRanWt=          -1 IRanGd=           0 AccXCQ= 0.00D+00.
 Generated NRdTot=       0 NPtTot=           0 NUsed=           0 NTot=          32
 NSgBfM=    46    46    46    46    46 MxSgAt=     9 MxSgA2=     9.
 Leave Link  302 at Wed Jan  6 00:37:28 2021, MaxMem=    33554432 cpu:         0.2
 (Enter /apps/applications/gaussian/G09.D01/2/default/g09/l303.exe)
 DipDrv:  MaxL=1.
 Leave Link  303 at Wed Jan  6 00:37:28 2021, MaxMem=    33554432 cpu:         0.1
 (Enter /apps/applications/gaussian/G09.D01/2/default/g09/l401.exe)
 ExpMin= 1.83D-01 ExpMax= 3.22D+02 ExpMxC= 3.22D+02 IAcc=1 IRadAn=         1 AccDes= 0.00D+00
 Harris functional with IExCor=  402 and IRadAn=       1 diagonalized for initial guess.
 HarFok:  IExCor=  402 AccDes= 0.00D+00 IRadAn=         1 IDoV= 1 UseB2=F ITyADJ=14
 ICtDFT=  3500011 ScaDFX=  1.000000  1.000000  1.000000  1.000000
 FoFCou: FMM=F IPFlag=           0 FMFlag=      100000 FMFlg1=           0
         NFxFlg=           0 DoJE=T BraDBF=F KetDBF=T FulRan=T
         wScrn=  0.000000 ICntrl=     500 IOpCl=  0 I1Cent=   200000004 NGrid=           0
         NMat0=    1 NMatS0=      1 NMatT0=    0 NMatD0=    1 NMtDS0=    0 NMtDT0=    0
 Petite list used in FoFCou.
 Harris En= -191.300366400904    
 JPrj=0 DoOrth=F DoCkMO=F.
 Initial guess <Sx>= 0.0000 <Sy>= 0.0000 <Sz>= 0.5000 <S**2>= 0.7500 S= 0.5000
 Leave Link  401 at Wed Jan  6 00:37:29 2021, MaxMem=    33554432 cpu:         0.3
 (Enter /apps/applications/gaussian/G09.D01/2/default/g09/l508.exe)
 Direct SCF.
 Tight linear equation convergence will be used.
 UB3LYP wavefunction.
 Quadratic Convergence SCF Method.
 Line search only if initial step raises energy.
 Integral symmetry usage will be decided dynamically.
 ReadGW:  IGet=1 IStart=         402 Next=         402 LGW=           0.
 Keep R1 and R2 ints in memory in canonical form, NReq=2054798.
 FoFCou: FMM=F IPFlag=           0 FMFlag=           0 FMFlg1=           0
         NFxFlg=           0 DoJE=F BraDBF=F KetDBF=F FulRan=T
         wScrn=  0.000000 ICntrl=     600 IOpCl=  0 I1Cent=           0 NGrid=           0
         NMat0=    1 NMatS0=   1081 NMatT0=    0 NMatD0=    1 NMtDS0=    0 NMtDT0=    0
 Symmetry not used in FoFCou.
 Iteration   1 EE= -191.179475827999                                    Grad=4.788D-01 Max rot=    5.6872 deg.
 Gradient too large for Newton-Raphson -- use scaled steepest descent instead.
 Alpha Gap=     0.093 HL deriv= 2.93D-03
  Beta Gap=     0.306 HL deriv= 3.92D-02
     ILin= 1 X=0.000D+00 Y=-1.911794758280D+02 DE= 0.00D+00 F= -4.84D-01
     ILin= 2 X=3.000D-01 Y=-1.912718570064D+02 DE=-9.24D-02 F= -1.30D-01
     ILin= 3 X=4.000D-01 Y=-1.912788113641D+02 DE=-9.93D-02 F= -9.31D-03
     ILin= 4 X=6.000D-01 Y=-1.912565317939D+02 DE=-7.71D-02 F=  2.32D-01
     An  expanding polynomial of degree  4 produced  0.4079
     Minimum is close to point  3 DX=  7.86D-03 DF= -3.72D-05 DXR=  1.93D-02 DFR=  3.75D-04 which will be used.
 Iteration   2 EE= -191.278811364070     Delta-E=       -0.099335536071 Grad=1.355D-01 Max rot=    1.5063 deg.
 Gradient too large for Newton-Raphson -- use scaled steepest descent instead.
 Alpha Gap=     0.182 HL deriv= 2.53D-03
  Beta Gap=     0.252 HL deriv= 3.83D-03
     ILin= 1 X=0.000D+00 Y=-1.912788113641D+02 DE= 0.00D+00 F= -3.20D-02
     ILin= 2 X=3.000D-01 Y=-1.912851800477D+02 DE=-6.37D-03 F= -1.05D-02
     ILin= 3 X=6.000D-01 Y=-1.912851454958D+02 DE=-6.33D-03 F=  1.07D-02
     An  expanding polynomial of degree  3 produced  0.4484
 Iteration   3 EE= -191.285955698211     Delta-E=       -0.007144334140 Grad=5.446D-02 Max rot=    0.7324 deg.
 Gradient too large for Newton-Raphson -- use scaled steepest descent instead.
 Alpha Gap=     0.157 HL deriv= 9.80D-05
  Beta Gap=     0.274 HL deriv= 1.56D-02
     ILin= 1 X=0.000D+00 Y=-1.912859556982D+02 DE= 0.00D+00 F= -5.00D-03
     ILin= 2 X=4.000D-01 Y=-1.912871703182D+02 DE=-1.21D-03 F= -1.07D-03
     ILin= 3 X=8.000D-01 Y=-1.912868147204D+02 DE=-8.59D-04 F=  2.85D-03
     An  expanding polynomial of degree  3 produced  0.5094
 Iteration   4 EE= -191.287229106047     Delta-E=       -0.001273407837 Grad=3.240D-02 Max rot=    0.4610 deg.
 Gradient too large for Newton-Raphson -- use scaled steepest descent instead.
 Alpha Gap=     0.169 HL deriv= 1.32D-03
  Beta Gap=     0.266 HL deriv= 5.52D-03
     ILin= 1 X=0.000D+00 Y=-1.912872291060D+02 DE= 0.00D+00 F= -1.56D-03
     ILin= 2 X=5.000D-01 Y=-1.912875965034D+02 DE=-3.67D-04 F=  8.79D-05
     Accept linear search using points  1 and  2.
     An  expanding polynomial of degree  2 produced  0.3445
 Iteration   5 EE= -191.287570424525     Delta-E=       -0.000341318477 Grad=1.652D-02 Max rot=    0.2449 deg.
 Gradient too large for Newton-Raphson -- use scaled steepest descent instead.
 Alpha Gap=     0.166 HL deriv= 4.65D-04
  Beta Gap=     0.269 HL deriv= 6.81D-03
     ILin= 1 X=0.000D+00 Y=-1.912875704245D+02 DE= 0.00D+00 F= -3.77D-04
     ILin= 2 X=4.000D-01 Y=-1.912876935187D+02 DE=-1.23D-04 F= -2.39D-04
     ILin= 3 X=8.000D-01 Y=-1.912877614943D+02 DE=-1.91D-04 F= -1.01D-04
     ILin= 4 X=1.700D+00 Y=-1.912877125614D+02 DE=-1.42D-04 F=  2.10D-04
     An  expanding polynomial of degree  4 produced  1.0926
 Iteration   6 EE= -191.287776272429     Delta-E=       -0.000205847904 Grad=6.549D-03 Max rot=    0.0941 deg.
 QCNR:  CnvC1=3.07D-09 CnvC2=3.07D-08
 LinEq1:  Iter=  0 NonCon=     1 RMS=4.31D-04 Max=6.35D-03 NDo=     1
 AX will form     1 AO Fock derivatives at one time.
 LinEq1:  Iter=  1 NonCon=     1 RMS=4.80D-04 Max=8.92D-03 NDo=     1
 LinEq1:  Iter=  2 NonCon=     1 RMS=9.10D-05 Max=1.02D-03 NDo=     1
 LinEq1:  Iter=  3 NonCon=     1 RMS=8.38D-05 Max=1.52D-03 NDo=     1
 LinEq1:  Iter=  4 NonCon=     1 RMS=3.64D-05 Max=5.49D-04 NDo=     1
 LinEq1:  Iter=  5 NonCon=     1 RMS=1.32D-05 Max=1.28D-04 NDo=     1
 LinEq1:  Iter=  6 NonCon=     1 RMS=8.16D-06 Max=7.52D-05 NDo=     1
 LinEq1:  Iter=  7 NonCon=     1 RMS=2.65D-06 Max=2.39D-05 NDo=     1
 LinEq1:  Iter=  8 NonCon=     1 RMS=1.29D-06 Max=1.04D-05 NDo=     1
 LinEq1:  Iter=  9 NonCon=     1 RMS=5.23D-07 Max=4.62D-06 NDo=     1
 LinEq1:  Iter= 10 NonCon=     1 RMS=1.35D-07 Max=1.97D-06 NDo=     1
 LinEq1:  Iter= 11 NonCon=     1 RMS=3.62D-08 Max=6.03D-07 NDo=     1
 LinEq1:  Iter= 12 NonCon=     1 RMS=9.47D-09 Max=8.42D-08 NDo=     1
 LinEq1:  Iter= 13 NonCon=     0 RMS=2.13D-09 Max=1.27D-08 NDo=     1
 Linear equations converged to 3.074D-09 3.074D-08 after    13 iterations.
 Angle between quadratic step and gradient=  55.63 degrees.
     ILin= 1 X=0.000D+00 Y=-1.912877762724D+02 DE= 0.00D+00 F= -7.38D-05
     ILin= 2 X=1.000D+00 Y=-1.912878131474D+02 DE=-3.69D-05 F=  7.93D-08
     Accept linear search using points  1 and  2.
     An  expanding polynomial of degree  2 produced  0.9989
     Minimum is close to point  2 DX= -1.07D-03 DF= -4.25D-11 DXR=  1.07D-03 DFR=  1.15D-06 which will be used.
 Iteration   7 EE= -191.287813147436     Delta-E=       -0.000036875008 Grad=1.604D-05 Max rot=    0.0003 deg.
 QCNR:  CnvC1=1.60D-10 CnvC2=1.60D-09
 LinEq1:  Iter=  0 NonCon=     1 RMS=1.09D-06 Max=1.64D-05 NDo=     1
 LinEq1:  Iter=  1 NonCon=     1 RMS=1.19D-06 Max=1.62D-05 NDo=     1
 LinEq1:  Iter=  2 NonCon=     1 RMS=3.86D-07 Max=6.01D-06 NDo=     1
 LinEq1:  Iter=  3 NonCon=     1 RMS=4.99D-07 Max=7.03D-06 NDo=     1
 LinEq1:  Iter=  4 NonCon=     1 RMS=1.95D-07 Max=1.71D-06 NDo=     1
 LinEq1:  Iter=  5 NonCon=     1 RMS=1.05D-07 Max=1.13D-06 NDo=     1
 LinEq1:  Iter=  6 NonCon=     1 RMS=2.93D-08 Max=2.37D-07 NDo=     1
 LinEq1:  Iter=  7 NonCon=     1 RMS=1.01D-08 Max=9.28D-08 NDo=     1
 LinEq1:  Iter=  8 NonCon=     1 RMS=5.41D-09 Max=5.73D-08 NDo=     1
 LinEq1:  Iter=  9 NonCon=     1 RMS=2.44D-09 Max=3.31D-08 NDo=     1
 LinEq1:  Iter= 10 NonCon=     1 RMS=7.17D-10 Max=6.02D-09 NDo=     1
 LinEq1:  Iter= 11 NonCon=     0 RMS=1.43D-10 Max=1.41D-09 NDo=     1
 Linear equations converged to 1.604D-10 1.604D-09 after    11 iterations.
 Angle between quadratic step and gradient=  42.82 degrees.
     ILin= 1 X=0.000D+00 Y=-1.912878131474D+02 DE= 0.00D+00 F= -8.41D-10
     ILin= 2 X=1.000D+00 Y=-1.912878131479D+02 DE=-4.21D-10
 Iteration   8 EE= -191.287813147857     Delta-E=       -0.000000000421 Grad=1.051D-09 Max rot=    0.0000 deg.
 Rotation gradient small -- convergence achieved.
 SCF Done:  E(UB3LYP) =  -191.287813148     a.u. after    8 cycles
            Convg  =    0.1051D-08                    42 Fock formations.
              S**2 =  0.7514                  -V/T =  2.0065
 <Sx>= 0.0000 <Sy>= 0.0000 <Sz>= 0.5000 <S**2>= 0.7514 S= 0.5007
 <L.S>= 0.000000000000E+00
 Annihilation of the first spin contaminant:
 S**2 before annihilation     0.7514,   after     0.7500
 Leave Link  508 at Wed Jan  6 00:37:58 2021, MaxMem=    33554432 cpu:        28.8
 (Enter /apps/applications/gaussian/G09.D01/2/default/g09/l801.exe)
 DoSCS=F DFT=T ScalE2(SS,OS)=  1.000000  1.000000
 Range of M.O.s used for correlation:     1    46
 NBasis=    46 NAE=    16 NBE=    15 NFC=     0 NFV=     0
 NROrb=     46 NOA=    16 NOB=    15 NVA=    30 NVB=    31
 Leave Link  801 at Wed Jan  6 00:37:58 2021, MaxMem=    33554432 cpu:         0.1
 (Enter /apps/applications/gaussian/G09.D01/2/default/g09/l1101.exe)
 Using compressed storage, NAtomX=     9.
 Will process     10 centers per pass.
 Leave Link 1101 at Wed Jan  6 00:37:59 2021, MaxMem=    33554432 cpu:         0.1
 (Enter /apps/applications/gaussian/G09.D01/2/default/g09/l1102.exe)
 Symmetrizing basis deriv contribution to polar:
 IMax=3 JMax=2 DiffMx= 0.00D+00
 Leave Link 1102 at Wed Jan  6 00:37:59 2021, MaxMem=    33554432 cpu:         0.1
 (Enter /apps/applications/gaussian/G09.D01/2/default/g09/l1110.exe)
 Forming Gx(P) for the SCF density, NAtomX=     9.
 Integral derivatives from FoFJK, PRISM(SPDF).
 Do as many integral derivatives as possible in FoFJK.
 G2DrvN: MDV=      33554256.
 G2DrvN: will do    10 centers at a time, making    1 passes.
 Calling FoFCou, ICntrl=  3107 FMM=F I1Cent=   0 AccDes= 0.00D+00.
 FoFJK:  IHMeth= 1 ICntrl=    3107 DoSepK=F KAlg= 0 I1Cent=   0 FoldK=F
 IRaf=         0 NMat=   1 IRICut=       1 DoRegI=T DoRafI=F ISym2E= 0.
 FoFCou: FMM=F IPFlag=           0 FMFlag=      100000 FMFlg1=           0
         NFxFlg=           0 DoJE=F BraDBF=F KetDBF=F FulRan=T
         wScrn=  0.000000 ICntrl=    3107 IOpCl=  1 I1Cent=           0 NGrid=           0
         NMat0=    1 NMatS0=      1 NMatT0=    0 NMatD0=    1 NMtDS0=    0 NMtDT0=    0
 Symmetry not used in FoFCou.
 End of G2Drv F.D. properties file   721 does not exist.
 End of G2Drv F.D. properties file   722 does not exist.
 End of G2Drv F.D. properties file   788 does not exist.
 Leave Link 1110 at Wed Jan  6 00:38:09 2021, MaxMem=    33554432 cpu:        10.1
 (Enter /apps/applications/gaussian/G09.D01/2/default/g09/l1002.exe)
 Minotr:  UHF open shell wavefunction.
          IDoAtm=111111111
          Direct CPHF calculation.
          Differentiating once with respect to electric field.
                with respect to dipole field.
          Differentiating once with respect to nuclear coordinates.
          Requested convergence is 1.0D-08 RMS, and 1.0D-07 maximum.
          Secondary convergence is 1.0D-12 RMS, and 1.0D-12 maximum.
          NewPWx=T KeepS1=F KeepF1=F KeepIn=T MapXYZ=F SortEE=F KeepMc=T.
          MDV=      33554246 using IRadAn=       2.
 Generate precomputed XC quadrature information.
 Keep R1 and R2 ints in memory in canonical form, NReq=2035813.
 FoFCou: FMM=F IPFlag=           0 FMFlag=           0 FMFlg1=           0
         NFxFlg=           0 DoJE=F BraDBF=F KetDBF=F FulRan=T
         wScrn=  0.000000 ICntrl=     600 IOpCl=  0 I1Cent=           0 NGrid=           0
         NMat0=    1 NMatS0=   1081 NMatT0=    0 NMatD0=    1 NMtDS0=    0 NMtDT0=    0
 Symmetry not used in FoFCou.
          Solving linear equations simultaneously, MaxMat=       0.
          There are    30 degrees of freedom in the 1st order CPHF.  IDoFFX=6 NUNeed=     3.
     27 vectors produced by pass  0 Test12= 3.15D-15 3.33D-09 XBig12= 1.03D+02 5.15D+00.
 AX will form    27 AO Fock derivatives at one time.
     27 vectors produced by pass  1 Test12= 3.15D-15 3.33D-09 XBig12= 2.96D+01 1.10D+00.
     27 vectors produced by pass  2 Test12= 3.15D-15 3.33D-09 XBig12= 2.64D-01 1.29D-01.
     27 vectors produced by pass  3 Test12= 3.15D-15 3.33D-09 XBig12= 7.94D-04 7.59D-03.
     27 vectors produced by pass  4 Test12= 3.15D-15 3.33D-09 XBig12= 2.15D-06 2.42D-04.
     27 vectors produced by pass  5 Test12= 3.15D-15 3.33D-09 XBig12= 3.62D-09 9.44D-06.
      8 vectors produced by pass  6 Test12= 3.15D-15 3.33D-09 XBig12= 8.49D-12 4.05D-07.
      3 vectors produced by pass  7 Test12= 3.15D-15 3.33D-09 XBig12= 1.88D-14 2.26D-08.
 InvSVY:  IOpt=1 It=  1 EMax= 6.22D-15
 Solved reduced A of dimension   173 with    30 vectors.
 FullF1:  Do perturbations    1 to     3.
 Isotropic polarizability for W=    0.000000       33.50 Bohr**3.
 End of Minotr F.D. properties file   721 does not exist.
 End of Minotr F.D. properties file   722 does not exist.
 End of Minotr F.D. properties file   788 does not exist.
 Leave Link 1002 at Wed Jan  6 00:38:19 2021, MaxMem=    33554432 cpu:         9.8
 (Enter /apps/applications/gaussian/G09.D01/2/default/g09/l601.exe)
 Copying SCF densities to generalized density rwf, IOpCl= 1 IROHF=0.

 **********************************************************************

            Population analysis using the SCF density.

 **********************************************************************

 Orbital symmetries:
 Alpha Orbitals:
       Occupied  (A) (A) (A) (A) (A) (A) (A) (A) (A) (A) (A) (A)
                 (A) (A) (A) (A)
       Virtual   (A) (A) (A) (A) (A) (A) (A) (A) (A) (A) (A) (A)
                 (A) (A) (A) (A) (A) (A) (A) (A) (A) (A) (A) (A)
                 (A) (A) (A) (A) (A) (A)
 Beta  Orbitals:
       Occupied  (A) (A) (A) (A) (A) (A) (A) (A) (A) (A) (A) (A)
                 (A) (A) (A)
       Virtual   (A) (A) (A) (A) (A) (A) (A) (A) (A) (A) (A) (A)
                 (A) (A) (A) (A) (A) (A) (A) (A) (A) (A) (A) (A)
                 (A) (A) (A) (A) (A) (A) (A)
 The electronic state is 2-A.
 Alpha  occ. eigenvalues --  -19.00290 -10.15024 -10.14176 -10.13380  -0.97227
 Alpha  occ. eigenvalues --   -0.78375  -0.71588  -0.54968  -0.47606  -0.45714
 Alpha  occ. eigenvalues --   -0.43551  -0.40714  -0.34271  -0.27891  -0.25546
 Alpha  occ. eigenvalues --   -0.12126
 Alpha virt. eigenvalues --    0.04061   0.07273   0.12853   0.15033   0.16161
 Alpha virt. eigenvalues --    0.19526   0.20432   0.26360   0.47716   0.66740
 Alpha virt. eigenvalues --    0.70329   0.74406   0.78375   0.81623   0.88562
 Alpha virt. eigenvalues --    0.90748   0.95255   0.99867   1.02731   1.04008
 Alpha virt. eigenvalues --    1.05069   1.16529   1.28726   1.38602   1.54047
 Alpha virt. eigenvalues --    1.61468   1.72172   2.01250   2.05624   2.78942
  Beta  occ. eigenvalues --  -18.98576 -10.14607 -10.14205 -10.12928  -0.93343
  Beta  occ. eigenvalues --   -0.77435  -0.70459  -0.54270  -0.46827  -0.44346
  Beta  occ. eigenvalues --   -0.43354  -0.39425  -0.30499  -0.26220  -0.24144
  Beta virt. eigenvalues --    0.01538   0.04620   0.09563   0.13175   0.15654
  Beta virt. eigenvalues --    0.17012   0.19633   0.21108   0.26854   0.48200
  Beta virt. eigenvalues --    0.67781   0.70679   0.74894   0.78719   0.82967
  Beta virt. eigenvalues --    0.88770   0.91602   0.95596   1.00410   1.02812
  Beta virt. eigenvalues --    1.04443   1.05599   1.17143   1.29275   1.39463
  Beta virt. eigenvalues --    1.57773   1.62711   1.75209   2.01350   2.06469
  Beta virt. eigenvalues --    2.82371
          Condensed to atoms (all electrons):
               1          2          3          4          5          6
     1  C    5.390975   0.283457   0.358741   0.364275   0.351422  -0.046242
     2  C    0.283457   4.994559  -0.055360  -0.047166  -0.043601   0.799342
     3  H    0.358741  -0.055360   0.532184  -0.025202  -0.026978  -0.002984
     4  H    0.364275  -0.047166  -0.025202   0.512002  -0.026571  -0.001495
     5  H    0.351422  -0.043601  -0.026978  -0.026571   0.506715  -0.000402
     6  C   -0.046242   0.799342  -0.002984  -0.001495  -0.000402   5.138505
     7  H    0.000433  -0.024323   0.000060  -0.000017  -0.000029   0.379276
     8  O   -0.018001  -0.063680   0.000277   0.000336   0.002553  -0.061470
     9  H    0.002277   0.009397   0.000036   0.000446  -0.000800   0.004125
               7          8          9
     1  C    0.000433  -0.018001   0.002277
     2  C   -0.024323  -0.063680   0.009397
     3  H    0.000060   0.000277   0.000036
     4  H   -0.000017   0.000336   0.000446
     5  H   -0.000029   0.002553  -0.000800
     6  C    0.379276  -0.061470   0.004125
     7  H    0.436898  -0.012505   0.000946
     8  O   -0.012505   8.433377   0.161491
     9  H    0.000946   0.161491   0.530661
          Atomic-Atomic Spin Densities.
               1          2          3          4          5          6
     1  C   -0.022233   0.000173   0.007913  -0.001132  -0.004346  -0.000791
     2  C    0.000173   0.288312  -0.010888   0.000280  -0.002039   0.097670
     3  H    0.007913  -0.010888   0.026103  -0.002141  -0.005135  -0.001236
     4  H   -0.001132   0.000280  -0.002141   0.002456   0.001823   0.000006
     5  H   -0.004346  -0.002039  -0.005135   0.001823   0.017640  -0.000314
     6  C   -0.000791   0.097670  -0.001236   0.000006  -0.000314   0.324624
     7  H    0.000101   0.001901   0.000021  -0.000005  -0.000014  -0.002343
     8  O   -0.004580  -0.196201  -0.000331   0.000494   0.001598  -0.181998
     9  H    0.000827   0.023046   0.000061  -0.000254  -0.000368   0.021656
               7          8          9
     1  C    0.000101  -0.004580   0.000827
     2  C    0.001901  -0.196201   0.023046
     3  H    0.000021  -0.000331   0.000061
     4  H   -0.000005   0.000494  -0.000254
     5  H   -0.000014   0.001598  -0.000368
     6  C   -0.002343  -0.181998   0.021656
     7  H   -0.009221  -0.003754   0.000705
     8  O   -0.003754   0.966038  -0.054142
     9  H    0.000705  -0.054142   0.033756
 Mulliken charges and spin densities:
               1          2
     1  C   -0.687337  -0.024067
     2  C    0.147375   0.202253
     3  H    0.219227   0.014366
     4  H    0.223392   0.001527
     5  H    0.237692   0.008845
     6  C   -0.208653   0.257274
     7  H    0.219260  -0.012610
     8  O   -0.442378   0.527123
     9  H    0.291421   0.025288
 Sum of Mulliken charges =   0.00000   1.00000
 Mulliken charges and spin densities with hydrogens summed into heavy atoms:
               1          2
     1  C   -0.007026   0.000671
     2  C    0.147375   0.202253
     6  C    0.010607   0.244664
     8  O   -0.150957   0.552411
 APT charges:
               1
     1  C    0.073709
     2  C    0.037424
     3  H   -0.013446
     4  H    0.015189
     5  H    0.011707
     6  C   -0.260283
     7  H    0.181490
     8  O   -0.120190
     9  H    0.074400
 Sum of APT charges =   0.00000
 APT charges with hydrogens summed into heavy atoms:
               1
     1  C    0.087159
     2  C    0.037424
     6  C   -0.078793
     8  O   -0.045790
 Electronic spatial extent (au):  <R**2>=            285.3203
 Charge=              0.0000 electrons
 Dipole moment (field-independent basis, Debye):
    X=             -0.8957    Y=              0.2179    Z=              1.4162  Tot=              1.6898
 Quadrupole moment (field-independent basis, Debye-Ang):
   XX=            -20.5256   YY=            -23.3528   ZZ=            -24.3974
   XY=              1.9683   XZ=              1.9740   YZ=             -1.8574
 Traceless Quadrupole moment (field-independent basis, Debye-Ang):
   XX=              2.2330   YY=             -0.5941   ZZ=             -1.6388
   XY=              1.9683   XZ=              1.9740   YZ=             -1.8574
 Octapole moment (field-independent basis, Debye-Ang**2):
  XXX=              4.6633  YYY=             -5.5941  ZZZ=              0.8326  XYY=              4.8110
  XXY=              1.6683  XXZ=              2.4671  XZZ=              1.2291  YZZ=             -4.1832
  YYZ=              1.7215  XYZ=             -2.2069
 Hexadecapole moment (field-independent basis, Debye-Ang**3):
 XXXX=           -218.2051 YYYY=            -94.8157 ZZZZ=            -31.2978 XXXY=              1.3074
 XXXZ=              3.7081 YYYX=             -1.1646 YYYZ=             -2.5363 ZZZX=              0.2751
 ZZZY=             -1.3085 XXYY=            -44.7751 XXZZ=            -42.1010 YYZZ=            -20.9874
 XXYZ=             -3.5064 YYXZ=              3.3859 ZZXY=             -1.4060
 N-N= 1.100556532066D+02 E-N=-6.671423476747D+02  KE= 1.900499639697D+02
  Exact polarizability:  45.599   2.870  34.704   2.065  -2.402  20.196
 Approx polarizability:  69.888   8.596  53.088   1.655  -1.677  26.092
                          Isotropic Fermi Contact Couplings
        Atom                 a.u.       MegaHertz       Gauss      10(-4) cm-1
     1  C(13)             -0.00905     -10.17111      -3.62930      -3.39272
     2  C(13)              0.08300      93.30812      33.29465      31.12424
     3  H(1)               0.00639      28.57293      10.19553       9.53090
     4  H(1)               0.00063       2.82961       1.00968       0.94386
     5  H(1)               0.00323      14.43159       5.14955       4.81386
     6  C(13)              0.07078      79.56635      28.39125      26.54048
     7  H(1)              -0.00426     -19.02546      -6.78876      -6.34621
     8  O(17)              0.55290    -335.16628    -119.59566    -111.79944
     9  H(1)              -0.00190      -8.49555      -3.03143      -2.83381
 --------------------------------------------------------
       Center         ----  Spin Dipole Couplings  ----
                      3XX-RR        3YY-RR        3ZZ-RR
 --------------------------------------------------------
     1   Atom        0.012330     -0.004697     -0.007633
     2   Atom        0.066181      0.094282     -0.160462
     3   Atom        0.008942     -0.004689     -0.004253
     4   Atom        0.007614     -0.003438     -0.004175
     5   Atom        0.008601     -0.003385     -0.005217
     6   Atom       -0.117254      0.288558     -0.171304
     7   Atom        0.013629      0.015063     -0.028692
     8   Atom       -0.491467      1.124850     -0.633383
     9   Atom       -0.056022     -0.005595      0.061617
 --------------------------------------------------------
                        XY            XZ            YZ
 --------------------------------------------------------
     1   Atom        0.002454     -0.000266     -0.000516
     2   Atom       -0.205252     -0.001907      0.001679
     3   Atom       -0.000899      0.000802      0.000419
     4   Atom        0.002726     -0.004934     -0.000964
     5   Atom        0.004111      0.004277      0.000959
     6   Atom       -0.105502      0.000392      0.003589
     7   Atom        0.020158     -0.000346      0.000410
     8   Atom       -1.073712     -0.437683      0.879547
     9   Atom       -0.035343      0.031643     -0.058856
 --------------------------------------------------------


 ---------------------------------------------------------------------------------
              Anisotropic Spin Dipole Couplings in Principal Axis System
 ---------------------------------------------------------------------------------

       Atom             a.u.   MegaHertz   Gauss  10(-4) cm-1        Axes

              Baa    -0.0077    -1.036    -0.370    -0.346 -0.0083  0.1747  0.9846
     1 C(13)  Bbb    -0.0050    -0.666    -0.238    -0.222 -0.1410  0.9746 -0.1741
              Bcc     0.0127     1.702     0.607     0.568  0.9900  0.1403 -0.0165
 
              Baa    -0.1605   -21.535    -7.684    -7.183  0.0090  0.0007  1.0000
     2 C(13)  Bbb    -0.1255   -16.841    -6.009    -5.617  0.7308  0.6825 -0.0071
              Bcc     0.2860    38.375    13.693    12.801 -0.6825  0.7308  0.0057
 
              Baa    -0.0050    -2.691    -0.960    -0.898  0.0847  0.8423 -0.5322
     3 H(1)   Bbb    -0.0040    -2.135    -0.762    -0.712 -0.0152  0.5352  0.8446
              Bcc     0.0090     4.826     1.722     1.610  0.9963 -0.0635  0.0581
 
              Baa    -0.0060    -3.184    -1.136    -1.062  0.3436 -0.0125  0.9390
     4 H(1)   Bbb    -0.0041    -2.166    -0.773    -0.722 -0.1929  0.9776  0.0837
              Bcc     0.0100     5.350     1.909     1.784  0.9191  0.2099 -0.3335
 
              Baa    -0.0065    -3.444    -1.229    -1.149 -0.2975  0.1020  0.9493
     5 H(1)   Bbb    -0.0046    -2.452    -0.875    -0.818 -0.2397  0.9544 -0.1777
              Bcc     0.0110     5.896     2.104     1.967  0.9241  0.2804  0.2595
 
              Baa    -0.1714   -22.998    -8.206    -7.671 -0.0406 -0.0171  0.9990
     6 C(13)  Bbb    -0.1430   -19.188    -6.847    -6.400  0.9706  0.2369  0.0435
              Bcc     0.3144    42.186    15.053    14.072 -0.2374  0.9714  0.0070
 
              Baa    -0.0287   -15.315    -5.465    -5.109  0.0162 -0.0168  0.9997
     7 H(1)   Bbb    -0.0058    -3.101    -1.107    -1.034  0.7194 -0.6942 -0.0233
              Bcc     0.0345    18.417     6.572     6.143  0.6944  0.7196  0.0009
 
              Baa    -1.0272    74.328    26.522    24.793  0.8895  0.4559 -0.0296
     8 O(17)  Bbb    -0.9966    72.112    25.731    24.054  0.1830 -0.2961  0.9375
              Bcc     2.0238  -146.440   -52.253   -48.847 -0.4186  0.8393  0.3468
 
              Baa    -0.0742   -39.611   -14.134   -13.213  0.8938  0.4482 -0.0140
     9 H(1)   Bbb    -0.0340   -18.163    -6.481    -6.059 -0.3603  0.7366  0.5724
              Bcc     0.1083    57.774    20.615    19.271  0.2669 -0.5066  0.8199
 

 ---------------------------------------------------------------------------------

 No NMR shielding tensors so no spin-rotation constants.
 Leave Link  601 at Wed Jan  6 00:38:19 2021, MaxMem=    33554432 cpu:         0.1
 (Enter /apps/applications/gaussian/G09.D01/2/default/g09/l701.exe)
 Compute integral second derivatives.
 ... and contract with generalized density number  0.
 Leave Link  701 at Wed Jan  6 00:38:20 2021, MaxMem=    33554432 cpu:         0.1
 (Enter /apps/applications/gaussian/G09.D01/2/default/g09/l702.exe)
 L702 exits ... SP integral derivatives will be done elsewhere.
 Leave Link  702 at Wed Jan  6 00:38:20 2021, MaxMem=    33554432 cpu:         0.1
 (Enter /apps/applications/gaussian/G09.D01/2/default/g09/l703.exe)
 Compute integral second derivatives, UseDBF=F ICtDFT=           0.
 Integral derivatives from FoFJK, PRISM(SPDF).
 Calling FoFJK, ICntrl=    100127 FMM=F ISym2X=0 I1Cent= 0 IOpClX= 1 NMat=1 NMatS=1 NMatT=0.
 FoFJK:  IHMeth= 1 ICntrl=  100127 DoSepK=F KAlg= 0 I1Cent=   0 FoldK=F
 IRaf=         0 NMat=   1 IRICut=       1 DoRegI=T DoRafI=F ISym2E= 0.
 FoFCou: FMM=F IPFlag=           0 FMFlag=      100000 FMFlg1=         800
         NFxFlg=           0 DoJE=F BraDBF=F KetDBF=F FulRan=T
         wScrn=  0.000000 ICntrl=  100127 IOpCl=  1 I1Cent=           0 NGrid=           0
         NMat0=    1 NMatS0=      1 NMatT0=    0 NMatD0=    1 NMtDS0=    0 NMtDT0=    0
 Symmetry not used in FoFCou.
 Leave Link  703 at Wed Jan  6 00:38:28 2021, MaxMem=    33554432 cpu:         8.7
 (Enter /apps/applications/gaussian/G09.D01/2/default/g09/l716.exe)
 Dipole        =-3.52409737D-01 8.57311280D-02 5.57177104D-01
 Polarizability= 4.55991235D+01 2.86985035D+00 3.47043963D+01
                 2.06537508D+00-2.40173586D+00 2.01962255D+01
 ***** Axes restored to original set *****
 -------------------------------------------------------------------
 Center     Atomic                   Forces (Hartrees/Bohr)
 Number     Number              X              Y              Z
 -------------------------------------------------------------------
      1        6           0.005529594    0.011403720   -0.019417407
      2        6          -0.016271166   -0.037850978   -0.016522827
      3        1           0.001686463    0.000547186    0.002284795
      4        1          -0.003602791   -0.000648049    0.001146644
      5        1           0.000361468   -0.005917125    0.001439692
      6        6           0.002654141   -0.012200584   -0.048712939
      7        1          -0.014154039   -0.017455388    0.011214997
      8        8          -0.007524272    0.075772131    0.057694723
      9        1           0.031320602   -0.013650914    0.010872321
 -------------------------------------------------------------------
 Cartesian Forces:  Max     0.075772131 RMS     0.024449723
 Force constants in Cartesian coordinates: 
                1             2             3             4             5 
      1  0.516623D+00
      2  0.496019D-02  0.505869D+00
      3 -0.711085D-02 -0.755333D-02  0.527077D+00
      4 -0.104847D+00 -0.403647D-01  0.825452D-01  0.331136D+00
      5 -0.456622D-01 -0.108835D+00  0.974086D-01  0.268117D+00  0.395122D+00
      6  0.702488D-01  0.821964D-01 -0.191309D+00 -0.393213D+00 -0.482457D+00
      7 -0.807129D-01 -0.299543D-01 -0.759293D-01  0.521460D-02  0.593241D-02
      8 -0.295228D-01 -0.743308D-01 -0.673230D-01  0.692460D-02  0.360744D-02
      9 -0.776804D-01 -0.703478D-01 -0.227047D+00 -0.295990D-02 -0.133698D-02
     10 -0.284066D+00  0.334185D-01 -0.166780D-02 -0.157309D-01 -0.380210D-02
     11  0.330255D-01 -0.503510D-01  0.130487D-02 -0.221770D-01 -0.546212D-03
     12 -0.465106D-03  0.101581D-02 -0.480005D-01  0.337079D-01 -0.158659D-02
     13 -0.550665D-01  0.416099D-01  0.356657D-02  0.121226D-02 -0.189455D-01
     14  0.428003D-01 -0.273018D+00 -0.180671D-01 -0.330692D-02 -0.184641D-01
     15  0.339983D-02 -0.176279D-01 -0.492135D-01 -0.425607D-02  0.340257D-01
     16  0.630400D-02 -0.182908D-02 -0.582690D-02 -0.224199D+00 -0.187199D+00
     17  0.338141D-02  0.492514D-02 -0.927307D-02 -0.211937D+00 -0.260316D+00
     18  0.124611D-01  0.154323D-01  0.107388D-02  0.268628D+00  0.343493D+00
     19  0.305342D-02 -0.247082D-02  0.764152D-03  0.556647D-02  0.256783D-02
     20 -0.158909D-02  0.287441D-02  0.139365D-02  0.285811D-02  0.588045D-02
     21  0.122126D-02  0.185761D-02  0.251767D-02  0.112136D-02  0.442106D-03
     22 -0.133800D-02 -0.557312D-02  0.221271D-02 -0.446137D-02 -0.105624D-01
     23 -0.797261D-02 -0.686669D-02  0.117197D-02  0.335741D-02 -0.845883D-02
     24 -0.130540D-02 -0.492552D-02 -0.140188D-01  0.250530D-01  0.853177D-02
     25  0.497354D-04  0.203320D-03  0.144616D-02  0.610867D-02 -0.104462D-01
     26  0.579295D-03 -0.267047D-03  0.937475D-03 -0.347136D-02 -0.798840D-02
     27 -0.769242D-03 -0.474867D-04 -0.108006D-02 -0.106265D-01  0.147914D-02
                6             7             8             9            10 
      6  0.597376D+00
      7  0.185272D-01  0.866962D-01
      8  0.212263D-01  0.347249D-01  0.807580D-01
      9 -0.386724D-01  0.826743D-01  0.736796D-01  0.258708D+00
     10  0.698695D-02 -0.126710D-01  0.224963D-02 -0.843180D-03  0.317661D+00
     11  0.176884D-02 -0.121657D-01  0.459263D-03 -0.103203D-03 -0.345715D-01
     12 -0.448594D-02 -0.304659D-01  0.507795D-02  0.320016D-03 -0.296471D-02
     13  0.189207D-02  0.128932D-02 -0.135840D-01 -0.104055D-02 -0.683670D-02
     14  0.969918D-02  0.220079D-02 -0.112870D-01 -0.200253D-02  0.157261D-02
     15 -0.411410D-02  0.623415D-02 -0.302492D-01 -0.208769D-02 -0.868953D-03
     16  0.382759D+00 -0.558857D-03 -0.195042D-02  0.341309D-02  0.625987D-03
     17  0.506123D+00 -0.178246D-02 -0.163679D-02  0.563068D-02  0.989909D-03
     18 -0.329964D+00 -0.201026D-02 -0.233544D-02  0.823064D-02 -0.149782D-02
     19 -0.820678D-02 -0.689159D-04  0.116622D-03 -0.252837D-03  0.346142D-03
     20 -0.998306D-02 -0.507901D-04 -0.114825D-03 -0.849176D-05 -0.817150D-04
     21  0.131326D-03 -0.176322D-03 -0.222490D-03  0.168515D-04  0.196420D-03
     22 -0.729224D-01  0.903176D-03  0.106857D-02 -0.331437D-02  0.767812D-03
     23 -0.118723D+00  0.129646D-02  0.260306D-02 -0.559492D-02  0.218009D-03
     24 -0.305216D-01  0.859951D-03 -0.465898D-04  0.634721D-03  0.127091D-03
     25 -0.607111D-02 -0.916299D-04 -0.269993D-04  0.385472D-05 -0.970253D-04
     26 -0.985067D-02 -0.201366D-03 -0.583226D-04  0.837145D-04  0.665969D-05
     27  0.156065D-02  0.286149D-03  0.193008D-03 -0.103101D-03  0.532009D-03
               11            12            13            14            15 
     11  0.555949D-01
     12 -0.446925D-02  0.543125D-01
     13  0.348810D-01  0.241120D-02  0.604830D-01
     14 -0.483570D-02 -0.114241D-02 -0.439258D-01  0.306758D+00
     15  0.235191D-03 -0.102828D-02 -0.648233D-02  0.151402D-01  0.559801D-01
     16  0.118740D-03 -0.825770D-03 -0.810298D-03 -0.625710D-03  0.179400D-02
     17  0.207438D-03  0.179867D-03 -0.160009D-02 -0.239609D-02  0.108198D-02
     18  0.110631D-02 -0.101915D-02  0.278015D-03 -0.317794D-02 -0.120494D-03
     19  0.646486D-03 -0.805110D-03 -0.354486D-03 -0.145620D-03  0.839225D-03
     20 -0.393533D-03  0.363864D-03  0.502764D-03  0.690745D-03 -0.115421D-02
     21  0.246921D-03 -0.269384D-03  0.417174D-03  0.500926D-03 -0.554056D-03
     22  0.225826D-03 -0.336604D-03  0.120953D-03  0.858446D-03 -0.831849D-03
     23 -0.373628D-03  0.387693D-03  0.633542D-03  0.225527D-02 -0.112680D-02
     24 -0.291196D-03  0.902120D-03 -0.860045D-03 -0.937941D-03  0.934870D-03
     25  0.165843D-04 -0.255942D-03 -0.375636D-04  0.571945D-03  0.172004D-03
     26  0.238539D-03  0.173066D-03  0.428192D-03  0.296701D-03 -0.324889D-03
     27  0.201509D-03 -0.731379D-03 -0.182100D-03 -0.123683D-04  0.203166D-03
               16            17            18            19            20 
     16  0.347018D+00
     17  0.362582D+00  0.472900D+00
     18 -0.439156D+00 -0.551849D+00  0.536075D+00
     19 -0.138706D+00 -0.150449D+00  0.153033D+00  0.131874D+00
     20 -0.150844D+00 -0.191808D+00  0.187958D+00  0.155680D+00  0.190340D+00
     21  0.147498D+00  0.181911D+00 -0.170862D+00 -0.146487D+00 -0.177925D+00
     22  0.899126D-02 -0.267602D-02  0.977815D-02 -0.638104D-05 -0.704155D-02
     23 -0.111837D-01 -0.294647D-01  0.148770D-01 -0.515186D-02 -0.691341D-02
     24 -0.889756D-01 -0.120009D+00 -0.325928D-01  0.493655D-03 -0.142854D-02
     25  0.133561D-02  0.149243D-02 -0.151428D-02 -0.170333D-02  0.567066D-03
     26 -0.906786D-02  0.758968D-02 -0.550492D-02 -0.792976D-03 -0.556183D-03
     27 -0.679522D-03 -0.137952D-01 -0.108203D-01  0.620978D-03  0.783504D-03
               21            22            23            24            25 
     21  0.170754D+00
     22 -0.360437D-02  0.367713D+00
     23 -0.616529D-02 -0.106763D+00  0.855073D-01
     24 -0.273582D-02  0.227570D+00  0.516064D-01  0.145308D+00
     25 -0.187423D-03 -0.372690D+00  0.125566D+00 -0.162962D+00  0.367126D+00
     26 -0.645214D-03  0.130463D+00 -0.382884D-01  0.675004D-01 -0.117944D+00
     27  0.100166D-02 -0.158551D+00  0.635669D-01 -0.679110D-01  0.169369D+00
               26            27 
     26  0.390335D-01
     27 -0.523690D-01  0.778804D-01
 Leave Link  716 at Wed Jan  6 00:38:28 2021, MaxMem=    33554432 cpu:         0.1
 (Enter /apps/applications/gaussian/G09.D01/2/default/g09/l103.exe)

 GradGradGradGradGradGradGradGradGradGradGradGradGradGradGradGradGradGrad
 Berny optimization.
 Search for a saddle point.
 Step number   1 out of a maximum of  100
 All quantities printed in internal units (Hartrees-Bohrs-Radians)
 Swapping is turned off.
 Second derivative matrix not updated -- analytic derivatives used.
 ITU=  0
     Eigenvalues ---   -0.27845  -0.00833  -0.00228   0.00077   0.00409
     Eigenvalues ---    0.00455   0.01054   0.05185   0.08703   0.09290
     Eigenvalues ---    0.10948   0.11996   0.16401   0.24342   0.25447
     Eigenvalues ---    0.50136   0.67816   0.69499   0.83184   0.84983
     Eigenvalues ---    2.33912
 Eigenvectors required to have negative eigenvalues:
                          Z2        Y6        Z6        Z8        X6
   1                    0.51551  -0.46676  -0.36028  -0.30562  -0.28469
                          Y2        Y8        X8        Z3        X2
   1                    0.23765   0.22823   0.19918   0.11703   0.11134
 Eigenvalue     2 is  -8.33D-03 should be greater than     0.000000 Eigenvector:
                          Z9        Z8        X9        Y9        Y2
   1                    0.46826  -0.34797  -0.33924  -0.33508  -0.30919
                          Z5        Y8        X8        X5        Y4
   1                    0.29686   0.22278   0.21674  -0.19644   0.18409
 Eigenvalue     3 is  -2.28D-03 should be greater than     0.000000 Eigenvector:
                          Z4        X3        Y9        X5        Y4
   1                    0.44578   0.42510  -0.32816  -0.31614   0.31286
                          Z9        Y3        Z5        X2        X9
   1                   -0.27691  -0.25629  -0.20901  -0.18142   0.16241
 RFO step:  Lambda0=2.121470027D-05 Lambda=-5.29173068D-02.
 Linear search not attempted -- option 19 set.
 Maximum step size (   0.300) exceeded in Quadratic search.
    -- Step size scaled by   0.291
 TrRot=  0.006107  0.010739 -0.008603  1.255859  0.007663 -1.257343
 Variable       Old X    -DE/DX   Delta X   Delta X   Delta X     New X
                                 (Linear)    (Quad)   (Total)
    X1        0.64416   0.00553   0.00000  -0.00519  -0.00317   0.64098
    Y1        0.79158   0.01140   0.00000   0.00505  -0.00133   0.79025
    Z1       -2.21939  -0.01942   0.00000   0.00374  -0.01212  -2.23150
    X2       -0.51414  -0.01627   0.00000  -0.01392  -0.00915  -0.52329
    Y2       -0.50681  -0.03785   0.00000  -0.09744  -0.08725  -0.59406
    Z2       -0.13783  -0.01652   0.00000  -0.04928  -0.05223  -0.19006
    X3       -0.09940   0.00169   0.00000   0.05840   0.05505  -0.04435
    Y3        0.13135   0.00055   0.00000   0.01045  -0.00842   0.12293
    Z3       -4.05293   0.00228   0.00000  -0.01847  -0.02789  -4.08083
    X4        2.71372  -0.00360   0.00000  -0.00029   0.00150   2.71522
    Y4        0.53136  -0.00065   0.00000   0.07264   0.06335   0.59471
    Z4       -2.24604   0.00115   0.00000   0.05518   0.03583  -2.21021
    X5        0.29290   0.00036   0.00000  -0.08220  -0.07679   0.21611
    Y5        2.85098  -0.00592   0.00000  -0.01651  -0.02113   2.82985
    Z5       -2.10601   0.00144   0.00000   0.05149   0.02178  -2.08423
    X6       -1.62547   0.00265   0.00000  -0.02089  -0.01414  -1.63961
    Y6       -1.86064  -0.01220   0.00000  -0.00330   0.02037  -1.84027
    Z6        1.42701  -0.04871   0.00000   0.00198   0.01082   1.43783
    X7       -2.63028  -0.01415   0.00000  -0.01757  -0.00985  -2.64013
    Y7       -3.07255  -0.01746   0.00000  -0.01785   0.01584  -3.05671
    Z7        2.58352   0.01121   0.00000   0.01113   0.03123   2.61475
    X8       -0.19423  -0.00752   0.00000   0.06180   0.07635  -0.11788
    Y8        0.79991   0.07577   0.00000   0.12907   0.16168   0.96159
    Z8        2.98635   0.05769   0.00000  -0.00735  -0.02250   2.96385
    X9        1.41275   0.03132   0.00000  -0.03513  -0.01979   1.39295
    Y9        0.33481  -0.01365   0.00000  -0.17942  -0.14310   0.19171
    Z9        3.76532   0.01087   0.00000   0.02819   0.01508   3.78041
         Item               Value     Threshold  Converged?
 Maximum Force            0.075772     0.000450     NO 
 RMS     Force            0.024450     0.000300     NO 
 Maximum Displacement     0.161682     0.001800     NO 
 RMS     Displacement     0.055180     0.001200     NO 
 Predicted change in Energy=-1.460435D-02
 Lowest energy point so far.  Saving SCF results.
 GradGradGradGradGradGradGradGradGradGradGradGradGradGradGradGradGradGrad

 Leave Link  103 at Wed Jan  6 00:38:29 2021, MaxMem=    33554432 cpu:         0.0
 (Enter /apps/applications/gaussian/G09.D01/2/default/g09/l202.exe)
                          Input orientation:                          
 ---------------------------------------------------------------------
 Center     Atomic      Atomic             Coordinates (Angstroms)
 Number     Number       Type             X           Y           Z
 ---------------------------------------------------------------------
      1          6           0        0.339194    0.418181   -1.180861
      2          6           0       -0.276916   -0.314364   -0.100574
      3          1           0       -0.023469    0.065053   -2.159482
      4          1           0        1.436833    0.314708   -1.169595
      5          1           0        0.114360    1.497492   -1.102927
      6          6           0       -0.867642   -0.973831    0.760868
      7          1           0       -1.397099   -1.617542    1.383665
      8          8           0       -0.062379    0.508853    1.568400
      9          1           0        0.737119    0.101450    2.000506
 ---------------------------------------------------------------------
                    Distance matrix (angstroms):
                    1          2          3          4          5
     1  C    0.000000
     2  C    1.443341   0.000000
     3  H    1.101781   2.108861   0.000000
     4  H    1.102563   2.115531   1.781764   0.000000
     5  H    1.105231   2.107281   1.785269   1.775488   0.000000
     6  C    2.676652   1.235288   3.212530   3.270722   3.247383
     7  H    3.706167   2.270693   4.155944   4.275967   4.262756
     8  O    2.779914   1.873283   3.754408   3.127611   2.853881
     9  H    3.221764   2.369748   4.229104   3.253401   3.459489
                    6          7          8          9
     6  C    0.000000
     7  H    1.040464   0.000000
     8  O    1.870538   2.517372   0.000000
     9  H    2.295255   2.808971   0.995937   0.000000
 Stoichiometry    C3H5O(2)
 Framework group  C1[X(C3H5O)]
 Deg. of freedom    21
 Full point group                 C1      NOp   1
 RotChk:  IX=0 Diff= 3.18D-02
 Largest Abelian subgroup         C1      NOp   1
 Largest concise Abelian subgroup C1      NOp   1
                         Standard orientation:                         
 ---------------------------------------------------------------------
 Center     Atomic      Atomic             Coordinates (Angstroms)
 Number     Number       Type             X           Y           Z
 ---------------------------------------------------------------------
      1          6           0       -1.587580   -0.124012    0.003405
      2          6           0       -0.250353    0.418816    0.023298
      3          1           0       -2.334981    0.664491   -0.179831
      4          1           0       -1.841952   -0.616078    0.956721
      5          1           0       -1.691818   -0.884326   -0.791953
      6          6           0        0.858529    0.962730    0.001530
      7          1           0        1.723610    1.540822   -0.001635
      8          8           0        1.081745   -0.890482   -0.119682
      9          1           0        1.367603   -1.126257    0.804756
 ---------------------------------------------------------------------
 Rotational constants (GHZ):     14.9886926      6.5081826      4.7442455
 Leave Link  202 at Wed Jan  6 00:38:29 2021, MaxMem=    33554432 cpu:         0.0
 (Enter /apps/applications/gaussian/G09.D01/2/default/g09/l301.exe)
 Standard basis: 3-21G (6D, 7F)
 Ernie: Thresh=  0.10000D-02 Tol=  0.10000D-05 Strict=F.
 There are    46 symmetry adapted cartesian basis functions of A   symmetry.
 There are    46 symmetry adapted basis functions of A   symmetry.
    46 basis functions,    75 primitive gaussians,    46 cartesian basis functions
    16 alpha electrons       15 beta electrons
       nuclear repulsion energy       108.9057390330 Hartrees.
 IExCor=  402 DFT=T Ex+Corr=B3LYP ExCW=0 ScaHFX=  0.200000
 ScaDFX=  0.800000  0.720000  1.000000  0.810000 ScalE2=  1.000000  1.000000
 IRadAn=      0 IRanWt=     -1 IRanGd=            0 ICorTp=0 IEmpDi=  4
 NAtoms=    9 NActive=    9 NUniq=    9 SFac= 1.00D+00 NAtFMM=   60 NAOKFM=F Big=F
 Integral buffers will be    131072 words long.
 Raffenetti 2 integral format.
 Two-electron integral symmetry is turned on.
 Leave Link  301 at Wed Jan  6 00:38:29 2021, MaxMem=    33554432 cpu:         0.0
 (Enter /apps/applications/gaussian/G09.D01/2/default/g09/l302.exe)
 NPDir=0 NMtPBC=     1 NCelOv=     1 NCel=       1 NClECP=     1 NCelD=      1
         NCelK=      1 NCelE2=     1 NClLst=     1 CellRange=     0.0.
 One-electron integrals computed using PRISM.
 NBasis=    46 RedAO= T EigKep=  1.46D-03  NBF=    46
 NBsUse=    46 1.00D-06 EigRej= -1.00D+00 NBFU=    46
 Precomputing XC quadrature grid using
 IXCGrd= 4 IRadAn=           0 IRanWt=          -1 IRanGd=           0 AccXCQ= 0.00D+00.
 Generated NRdTot=       0 NPtTot=           0 NUsed=           0 NTot=          32
 NSgBfM=    46    46    46    46    46 MxSgAt=     9 MxSgA2=     9.
 Leave Link  302 at Wed Jan  6 00:38:29 2021, MaxMem=    33554432 cpu:         0.2
 (Enter /apps/applications/gaussian/G09.D01/2/default/g09/l303.exe)
 DipDrv:  MaxL=1.
 Leave Link  303 at Wed Jan  6 00:38:29 2021, MaxMem=    33554432 cpu:         0.0
 (Enter /apps/applications/gaussian/G09.D01/2/default/g09/l401.exe)
 Initial guess from the checkpoint file:  "/nobackup/chmrsh/Scratch/Gau-77860.chk"
 B after Tr=     0.000000    0.000000    0.000000
         Rot=    0.999984    0.005388   -0.000988   -0.001617 Ang=   0.65 deg.
 Guess basis will be translated and rotated to current coordinates.
 JPrj=2 DoOrth=T DoCkMO=T.
 Initial guess <Sx>= 0.0000 <Sy>= 0.0000 <Sz>= 0.5000 <S**2>= 0.7514 S= 0.5007
 Generating alternative initial guess.
 ExpMin= 1.83D-01 ExpMax= 3.22D+02 ExpMxC= 3.22D+02 IAcc=1 IRadAn=         1 AccDes= 0.00D+00
 Harris functional with IExCor=  402 and IRadAn=       1 diagonalized for initial guess.
 HarFok:  IExCor=  402 AccDes= 0.00D+00 IRadAn=         1 IDoV= 1 UseB2=F ITyADJ=14
 ICtDFT=  3500011 ScaDFX=  1.000000  1.000000  1.000000  1.000000
 FoFCou: FMM=F IPFlag=           0 FMFlag=      100000 FMFlg1=           0
         NFxFlg=           0 DoJE=T BraDBF=F KetDBF=T FulRan=T
         wScrn=  0.000000 ICntrl=     500 IOpCl=  0 I1Cent=   200000004 NGrid=           0
         NMat0=    1 NMatS0=      1 NMatT0=    0 NMatD0=    1 NMtDS0=    0 NMtDT0=    0
 Petite list used in FoFCou.
 Harris En= -191.314737620715    
 Leave Link  401 at Wed Jan  6 00:38:29 2021, MaxMem=    33554432 cpu:         0.3
 (Enter /apps/applications/gaussian/G09.D01/2/default/g09/l508.exe)
 Direct SCF.
 Tight linear equation convergence will be used.
 UB3LYP wavefunction.
 Quadratic Convergence SCF Method.
 Line search only if initial step raises energy.
 Integral symmetry usage will be decided dynamically.
 ReadGW:  IGet=1 IStart=         402 Next=         402 LGW=           0.
 Keep R1 and R2 ints in memory in canonical form, NReq=2054798.
 FoFCou: FMM=F IPFlag=           0 FMFlag=           0 FMFlg1=           0
         NFxFlg=           0 DoJE=F BraDBF=F KetDBF=F FulRan=T
         wScrn=  0.000000 ICntrl=     600 IOpCl=  0 I1Cent=           0 NGrid=           0
         NMat0=    1 NMatS0=   1081 NMatT0=    0 NMatD0=    1 NMtDS0=    0 NMtDT0=    0
 Symmetry not used in FoFCou.
 Iteration   1 EE= -191.294004206218                                    Grad=9.326D-02 Max rot=    0.8102 deg.
 Gradient too large for Newton-Raphson -- use scaled steepest descent instead.
 Alpha Gap=     0.411 HL deriv= 9.65D-03
  Beta Gap=     0.518 HL deriv= 3.33D-03
     ILin= 1 X=0.000D+00 Y=-1.912940042062D+02 DE= 0.00D+00 F= -1.13D-02
     ILin= 2 X=3.000D-01 Y=-1.912968777216D+02 DE=-2.87D-03 F= -7.89D-03
     ILin= 3 X=6.000D-01 Y=-1.912987353383D+02 DE=-4.73D-03 F= -4.50D-03
     ILin= 4 X=1.200D+00 Y=-1.912993916451D+02 DE=-5.39D-03 F=  2.31D-03
     Accept linear search using points  3 and  4.
     An  expanding polynomial of degree  4 produced  0.9402
 Iteration   2 EE= -191.299609039359     Delta-E=       -0.005604833141 Grad=4.568D-02 Max rot=    0.6106 deg.
 Gradient too large for Newton-Raphson -- use scaled steepest descent instead.
 Alpha Gap=     0.416 HL deriv= 6.40D-04
  Beta Gap=     0.519 HL deriv= 6.58D-04
     ILin= 1 X=0.000D+00 Y=-1.912996090394D+02 DE= 0.00D+00 F= -3.28D-03
     ILin= 2 X=5.000D-01 Y=-1.913006273012D+02 DE=-1.02D-03 F= -7.98D-04
     ILin= 3 X=1.100D+00 Y=-1.913002148852D+02 DE=-6.06D-04 F=  2.17D-03
     An  expanding polynomial of degree  3 produced  0.6612
 Iteration   3 EE= -191.300691597862     Delta-E=       -0.001082558503 Grad=2.948D-02 Max rot=    0.3741 deg.
 Gradient too large for Newton-Raphson -- use scaled steepest descent instead.
 Alpha Gap=     0.412 HL deriv= 2.99D-03
  Beta Gap=     0.517 HL deriv= 1.99D-04
     ILin= 1 X=0.000D+00 Y=-1.913006915979D+02 DE= 0.00D+00 F= -1.52D-03
     ILin= 2 X=8.000D-01 Y=-1.913011619827D+02 DE=-4.70D-04 F=  3.48D-04
     Accept linear search using points  1 and  2.
     An  expanding polynomial of degree  2 produced  0.5956
 Iteration   4 EE= -191.301184308081     Delta-E=       -0.000492710219 Grad=2.140D-02 Max rot=    0.2987 deg.
 Gradient too large for Newton-Raphson -- use scaled steepest descent instead.
 Alpha Gap=     0.416 HL deriv= 9.61D-04
  Beta Gap=     0.519 HL deriv= 3.55D-04
     ILin= 1 X=0.000D+00 Y=-1.913011843081D+02 DE= 0.00D+00 F= -8.04D-04
     ILin= 2 X=6.000D-01 Y=-1.913014776926D+02 DE=-2.93D-04 F= -1.74D-04
     ILin= 3 X=1.300D+00 Y=-1.913013430149D+02 DE=-1.59D-04 F=  5.59D-04
     An  expanding polynomial of degree  3 produced  0.7665
 Iteration   5 EE= -191.301492168743     Delta-E=       -0.000307860662 Grad=2.009D-02 Max rot=    0.3014 deg.
 Gradient too large for Newton-Raphson -- use scaled steepest descent instead.
 Alpha Gap=     0.413 HL deriv= 1.82D-03
  Beta Gap=     0.517 HL deriv= 2.39D-04
     ILin= 1 X=0.000D+00 Y=-1.913014921687D+02 DE= 0.00D+00 F= -7.07D-04
     ILin= 2 X=7.000D-01 Y=-1.913016718336D+02 DE=-1.80D-04 F=  1.93D-04
     Accept linear search using points  1 and  2.
     An  expanding polynomial of degree  2 produced  0.4733
 Iteration   6 EE= -191.301682645972     Delta-E=       -0.000190477229 Grad=1.164D-02 Max rot=    0.1813 deg.
 Gradient too large for Newton-Raphson -- use scaled steepest descent instead.
 Alpha Gap=     0.415 HL deriv= 7.38D-04
  Beta Gap=     0.518 HL deriv= 1.66D-04
     ILin= 1 X=0.000D+00 Y=-1.913016826460D+02 DE= 0.00D+00 F= -2.56D-04
     ILin= 2 X=6.000D-01 Y=-1.913018014193D+02 DE=-1.19D-04 F= -1.39D-04
     ILin= 3 X=1.200D+00 Y=-1.913018500587D+02 DE=-1.67D-04 F= -2.27D-05
     Reject lnstep minimum 1.436D+00 FVal=-1.913018561746D+02 Lims=  6.00D-01  1.20D+00
     ILin= 4 X=2.400D+00 Y=-1.913017376298D+02 DE=-5.50D-05 F=  2.10D-04
     An  expanding polynomial of degree  4 produced  1.3169
     Minimum is close to point  3 DX=  1.17D-01 DF= -1.33D-06 DXR=  8.88D-02 DFR=  7.93D-03 which will be used.
 Iteration   7 EE= -191.301850058726     Delta-E=       -0.000167412754 Grad=1.465D-02 Max rot=    0.2223 deg.
 Gradient too large for Newton-Raphson -- use scaled steepest descent instead.
 Alpha Gap=     0.413 HL deriv= 1.11D-03
  Beta Gap=     0.517 HL deriv= 2.10D-04
     ILin= 1 X=0.000D+00 Y=-1.913018500587D+02 DE= 0.00D+00 F= -3.67D-04
     ILin= 2 X=8.000D-01 Y=-1.913018886999D+02 DE=-3.86D-05 F=  2.71D-04
     Accept linear search using points  1 and  2.
     An  expanding polynomial of degree  2 produced  0.4426
 Iteration   8 EE= -191.301934516885     Delta-E=       -0.000084458159 Grad=6.824D-03 Max rot=    0.1097 deg.
 QCNR:  CnvC1=3.07D-09 CnvC2=3.07D-08
 LinEq1:  Iter=  0 NonCon=     1 RMS=6.06D-04 Max=7.35D-03 NDo=     1
 AX will form     1 AO Fock derivatives at one time.
 LinEq1:  Iter=  1 NonCon=     1 RMS=2.37D-04 Max=3.65D-03 NDo=     1
 LinEq1:  Iter=  2 NonCon=     1 RMS=1.67D-04 Max=2.01D-03 NDo=     1
 LinEq1:  Iter=  3 NonCon=     1 RMS=8.51D-05 Max=7.09D-04 NDo=     1
 LinEq1:  Iter=  4 NonCon=     1 RMS=7.03D-05 Max=7.77D-04 NDo=     1
 LinEq1:  Iter=  5 NonCon=     1 RMS=6.66D-05 Max=8.99D-04 NDo=     1
 LinEq1:  Iter=  6 NonCon=     1 RMS=2.18D-05 Max=2.12D-04 NDo=     1
 LinEq1:  Iter=  7 NonCon=     1 RMS=8.43D-06 Max=6.12D-05 NDo=     1
 LinEq1:  Iter=  8 NonCon=     1 RMS=4.15D-06 Max=3.64D-05 NDo=     1
 LinEq1:  Iter=  9 NonCon=     1 RMS=1.50D-06 Max=9.15D-06 NDo=     1
 LinEq1:  Iter= 10 NonCon=     1 RMS=4.24D-07 Max=3.87D-06 NDo=     1
 LinEq1:  Iter= 11 NonCon=     1 RMS=9.29D-08 Max=8.33D-07 NDo=     1
 LinEq1:  Iter= 12 NonCon=     1 RMS=1.56D-08 Max=1.19D-07 NDo=     1
 LinEq1:  Iter= 13 NonCon=     1 RMS=3.54D-09 Max=4.00D-08 NDo=     1
 LinEq1:  Iter= 14 NonCon=     0 RMS=9.07D-10 Max=7.76D-09 NDo=     1
 Linear equations converged to 3.074D-09 3.074D-08 after    14 iterations.
 Angle between quadratic step and gradient=  33.34 degrees.
     ILin= 1 X=0.000D+00 Y=-1.913019345169D+02 DE= 0.00D+00 F= -3.18D-04
     ILin= 2 X=1.000D+00 Y=-1.913020933372D+02 DE=-1.59D-04 F=  6.07D-07
     Accept linear search using points  1 and  2.
     An  expanding polynomial of degree  2 produced  0.9981
     Minimum is close to point  2 DX= -1.90D-03 DF= -5.76D-10 DXR=  1.90D-03 DFR=  3.63D-06 which will be used.
 Iteration   9 EE= -191.302093337186     Delta-E=       -0.000158820301 Grad=1.250D-04 Max rot=    0.0022 deg.
 QCNR:  CnvC1=1.25D-09 CnvC2=1.25D-08
 LinEq1:  Iter=  0 NonCon=     1 RMS=7.09D-06 Max=1.26D-04 NDo=     1
 LinEq1:  Iter=  1 NonCon=     1 RMS=5.92D-06 Max=6.21D-05 NDo=     1
 LinEq1:  Iter=  2 NonCon=     1 RMS=1.99D-06 Max=1.80D-05 NDo=     1
 LinEq1:  Iter=  3 NonCon=     1 RMS=2.05D-06 Max=1.99D-05 NDo=     1
 LinEq1:  Iter=  4 NonCon=     1 RMS=1.42D-06 Max=1.35D-05 NDo=     1
 LinEq1:  Iter=  5 NonCon=     1 RMS=4.65D-07 Max=3.62D-06 NDo=     1
 LinEq1:  Iter=  6 NonCon=     1 RMS=1.79D-07 Max=1.39D-06 NDo=     1
 LinEq1:  Iter=  7 NonCon=     1 RMS=6.35D-08 Max=5.53D-07 NDo=     1
 LinEq1:  Iter=  8 NonCon=     1 RMS=3.93D-08 Max=2.94D-07 NDo=     1
 LinEq1:  Iter=  9 NonCon=     1 RMS=1.17D-08 Max=8.92D-08 NDo=     1
 LinEq1:  Iter= 10 NonCon=     1 RMS=2.62D-09 Max=1.95D-08 NDo=     1
 LinEq1:  Iter= 11 NonCon=     0 RMS=4.37D-10 Max=3.69D-09 NDo=     1
 Linear equations converged to 1.250D-09 1.250D-08 after    11 iterations.
 Angle between quadratic step and gradient=  52.72 degrees.
     ILin= 1 X=0.000D+00 Y=-1.913020933372D+02 DE= 0.00D+00 F= -2.24D-08
     ILin= 2 X=1.000D+00 Y=-1.913020933484D+02 DE=-1.12D-08 F= -7.97D-13
     Reject lnstep minimum 1.000D+00 FVal=-1.913020933484D+02 Lims=  0.00D+00  1.00D+00
     ILin= 3 X=2.000D+00 Y=-1.913020933372D+02 DE=-2.84D-12 F=  2.23D-08
     An  expanding polynomial of degree  3 produced  1.0001
     Minimum is close to point  2 DX=  6.42D-05 DF=  0.00D+00 DXR=  6.42D-05 DFR=  0.00D+00 which will be used.
 Iteration  10 EE= -191.302093348361     Delta-E=       -0.000000011175 Grad=6.973D-09 Max rot=    0.0000 deg.
 Rotation gradient small -- convergence achieved.
 SCF Done:  E(UB3LYP) =  -191.302093348     a.u. after   10 cycles
            Convg  =    0.6973D-08                    48 Fock formations.
              S**2 =  0.7516                  -V/T =  2.0072
 <Sx>= 0.0000 <Sy>= 0.0000 <Sz>= 0.5000 <S**2>= 0.7516 S= 0.5008
 <L.S>= 0.000000000000E+00
 Annihilation of the first spin contaminant:
 S**2 before annihilation     0.7516,   after     0.7500
 Leave Link  508 at Wed Jan  6 00:39:02 2021, MaxMem=    33554432 cpu:        32.6
 (Enter /apps/applications/gaussian/G09.D01/2/default/g09/l801.exe)
 DoSCS=F DFT=T ScalE2(SS,OS)=  1.000000  1.000000
 Range of M.O.s used for correlation:     1    46
 NBasis=    46 NAE=    16 NBE=    15 NFC=     0 NFV=     0
 NROrb=     46 NOA=    16 NOB=    15 NVA=    30 NVB=    31

 **** Warning!!: The largest alpha MO coefficient is  0.10086722D+02

 Leave Link  801 at Wed Jan  6 00:39:02 2021, MaxMem=    33554432 cpu:         0.0
 (Enter /apps/applications/gaussian/G09.D01/2/default/g09/l1101.exe)
 Using compressed storage, NAtomX=     9.
 Will process     10 centers per pass.
 Leave Link 1101 at Wed Jan  6 00:39:02 2021, MaxMem=    33554432 cpu:         0.1
 (Enter /apps/applications/gaussian/G09.D01/2/default/g09/l1102.exe)
 Symmetrizing basis deriv contribution to polar:
 IMax=3 JMax=2 DiffMx= 0.00D+00
 Leave Link 1102 at Wed Jan  6 00:39:02 2021, MaxMem=    33554432 cpu:         0.1
 (Enter /apps/applications/gaussian/G09.D01/2/default/g09/l1110.exe)
 Forming Gx(P) for the SCF density, NAtomX=     9.
 Integral derivatives from FoFJK, PRISM(SPDF).
 Do as many integral derivatives as possible in FoFJK.
 G2DrvN: MDV=      33554256.
 G2DrvN: will do    10 centers at a time, making    1 passes.
 Calling FoFCou, ICntrl=  3107 FMM=F I1Cent=   0 AccDes= 0.00D+00.
 FoFJK:  IHMeth= 1 ICntrl=    3107 DoSepK=F KAlg= 0 I1Cent=   0 FoldK=F
 IRaf=         0 NMat=   1 IRICut=       1 DoRegI=T DoRafI=F ISym2E= 0.
 FoFCou: FMM=F IPFlag=           0 FMFlag=      100000 FMFlg1=           0
         NFxFlg=           0 DoJE=F BraDBF=F KetDBF=F FulRan=T
         wScrn=  0.000000 ICntrl=    3107 IOpCl=  1 I1Cent=           0 NGrid=           0
         NMat0=    1 NMatS0=      1 NMatT0=    0 NMatD0=    1 NMtDS0=    0 NMtDT0=    0
 Symmetry not used in FoFCou.
 End of G2Drv F.D. properties file   721 does not exist.
 End of G2Drv F.D. properties file   722 does not exist.
 End of G2Drv F.D. properties file   788 does not exist.
 Leave Link 1110 at Wed Jan  6 00:39:13 2021, MaxMem=    33554432 cpu:        10.4
 (Enter /apps/applications/gaussian/G09.D01/2/default/g09/l1002.exe)
 Minotr:  UHF open shell wavefunction.
          IDoAtm=111111111
          Direct CPHF calculation.
          Differentiating once with respect to electric field.
                with respect to dipole field.
          Differentiating once with respect to nuclear coordinates.
          Requested convergence is 1.0D-08 RMS, and 1.0D-07 maximum.
          Secondary convergence is 1.0D-12 RMS, and 1.0D-12 maximum.
          NewPWx=T KeepS1=F KeepF1=F KeepIn=T MapXYZ=F SortEE=F KeepMc=T.
          MDV=      33554246 using IRadAn=       2.
 Generate precomputed XC quadrature information.
 Keep R1 and R2 ints in memory in canonical form, NReq=2035813.
 FoFCou: FMM=F IPFlag=           0 FMFlag=           0 FMFlg1=           0
         NFxFlg=           0 DoJE=F BraDBF=F KetDBF=F FulRan=T
         wScrn=  0.000000 ICntrl=     600 IOpCl=  0 I1Cent=           0 NGrid=           0
         NMat0=    1 NMatS0=   1081 NMatT0=    0 NMatD0=    1 NMtDS0=    0 NMtDT0=    0
 Symmetry not used in FoFCou.
          Solving linear equations simultaneously, MaxMat=       0.
          There are    30 degrees of freedom in the 1st order CPHF.  IDoFFX=6 NUNeed=     3.
     27 vectors produced by pass  0 Test12= 3.15D-15 3.33D-09 XBig12= 9.88D+01 4.82D+00.
 AX will form    27 AO Fock derivatives at one time.
     27 vectors produced by pass  1 Test12= 3.15D-15 3.33D-09 XBig12= 2.99D+01 1.17D+00.
     27 vectors produced by pass  2 Test12= 3.15D-15 3.33D-09 XBig12= 2.47D-01 1.19D-01.
     27 vectors produced by pass  3 Test12= 3.15D-15 3.33D-09 XBig12= 7.76D-04 7.10D-03.
     27 vectors produced by pass  4 Test12= 3.15D-15 3.33D-09 XBig12= 2.15D-06 2.24D-04.
     27 vectors produced by pass  5 Test12= 3.15D-15 3.33D-09 XBig12= 4.22D-09 8.22D-06.
      7 vectors produced by pass  6 Test12= 3.15D-15 3.33D-09 XBig12= 7.78D-12 3.69D-07.
      3 vectors produced by pass  7 Test12= 3.15D-15 3.33D-09 XBig12= 1.35D-14 1.73D-08.
 InvSVY:  IOpt=1 It=  1 EMax= 5.33D-15
 Solved reduced A of dimension   172 with    30 vectors.
 FullF1:  Do perturbations    1 to     3.
 Isotropic polarizability for W=    0.000000       33.34 Bohr**3.
 End of Minotr F.D. properties file   721 does not exist.
 End of Minotr F.D. properties file   722 does not exist.
 End of Minotr F.D. properties file   788 does not exist.
 Leave Link 1002 at Wed Jan  6 00:39:23 2021, MaxMem=    33554432 cpu:        10.3
 (Enter /apps/applications/gaussian/G09.D01/2/default/g09/l701.exe)
 Compute integral second derivatives.
 ... and contract with generalized density number  0.
 Leave Link  701 at Wed Jan  6 00:39:24 2021, MaxMem=    33554432 cpu:         0.1
 (Enter /apps/applications/gaussian/G09.D01/2/default/g09/l702.exe)
 L702 exits ... SP integral derivatives will be done elsewhere.
 Leave Link  702 at Wed Jan  6 00:39:24 2021, MaxMem=    33554432 cpu:         0.1
 (Enter /apps/applications/gaussian/G09.D01/2/default/g09/l703.exe)
 Compute integral second derivatives, UseDBF=F ICtDFT=           0.
 Integral derivatives from FoFJK, PRISM(SPDF).
 Calling FoFJK, ICntrl=    100127 FMM=F ISym2X=0 I1Cent= 0 IOpClX= 1 NMat=1 NMatS=1 NMatT=0.
 FoFJK:  IHMeth= 1 ICntrl=  100127 DoSepK=F KAlg= 0 I1Cent=   0 FoldK=F
 IRaf=         0 NMat=   1 IRICut=       1 DoRegI=T DoRafI=F ISym2E= 0.
 FoFCou: FMM=F IPFlag=           0 FMFlag=      100000 FMFlg1=         800
         NFxFlg=           0 DoJE=F BraDBF=F KetDBF=F FulRan=T
         wScrn=  0.000000 ICntrl=  100127 IOpCl=  1 I1Cent=           0 NGrid=           0
         NMat0=    1 NMatS0=      1 NMatT0=    0 NMatD0=    1 NMtDS0=    0 NMtDT0=    0
 Symmetry not used in FoFCou.
 Leave Link  703 at Wed Jan  6 00:39:33 2021, MaxMem=    33554432 cpu:         9.1
 (Enter /apps/applications/gaussian/G09.D01/2/default/g09/l716.exe)
 Dipole        =-3.04812455D-01 1.58937306D-01 5.73085907D-01
 Polarizability= 4.51258523D+01 2.51841911D+00 3.44276781D+01
                 1.81487630D+00-2.05045747D+00 2.04777880D+01
 ***** Axes restored to original set *****
 -------------------------------------------------------------------
 Center     Atomic                   Forces (Hartrees/Bohr)
 Number     Number              X              Y              Z
 -------------------------------------------------------------------
      1        6           0.004184525    0.007440490   -0.014456712
      2        6          -0.012418710   -0.028136024   -0.012538701
      3        1           0.001596156    0.000762181    0.001433254
      4        1          -0.003194856   -0.000750591    0.000888157
      5        1           0.000069651   -0.005573814    0.001610758
      6        6           0.001149398   -0.010146318   -0.037451372
      7        1          -0.010893299   -0.012089037    0.008883997
      8        8           0.005996245    0.055330644    0.049244164
      9        1           0.013510889   -0.006837531    0.002386455
 -------------------------------------------------------------------
 Cartesian Forces:  Max     0.055330644 RMS     0.018301364
 Force constants in Cartesian coordinates: 
                1             2             3             4             5 
      1  0.520093D+00
      2  0.190299D-02  0.509210D+00
      3  0.404016D-03  0.135843D-02  0.521623D+00
      4 -0.103858D+00 -0.431997D-01  0.751599D-01  0.341883D+00
      5 -0.451024D-01 -0.112483D+00  0.936721D-01  0.269799D+00  0.387496D+00
      6  0.669165D-01  0.859289D-01 -0.176756D+00 -0.408548D+00 -0.480794D+00
      7 -0.764545D-01 -0.284787D-01 -0.725496D-01  0.434538D-02  0.618190D-02
      8 -0.280754D-01 -0.758152D-01 -0.702685D-01  0.699151D-02  0.393770D-02
      9 -0.734687D-01 -0.727016D-01 -0.235613D+00 -0.274159D-02 -0.140578D-02
     10 -0.289135D+00  0.263303D-01 -0.688566D-02 -0.156017D-01 -0.402082D-02
     11  0.259403D-01 -0.485434D-01  0.183413D-02 -0.231863D-01 -0.139291D-02
     12 -0.622001D-02  0.160957D-02 -0.479115D-01  0.331583D-01 -0.130101D-02
     13 -0.584239D-01  0.503264D-01  0.480627D-02  0.166846D-02 -0.190167D-01
     14  0.516572D-01 -0.274059D+00 -0.217193D-01 -0.259132D-02 -0.201323D-01
     15  0.462711D-02 -0.212294D-01 -0.490142D-01 -0.496866D-02  0.326367D-01
     16  0.472847D-02 -0.181877D-02 -0.469504D-02 -0.236451D+00 -0.191778D+00
     17 -0.491106D-04  0.400607D-02 -0.768924D-02 -0.215420D+00 -0.247047D+00
     18  0.944591D-02  0.863427D-02  0.141532D-02  0.291875D+00  0.346797D+00
     19  0.347390D-02 -0.204719D-02  0.695815D-03  0.537754D-02  0.200020D-02
     20 -0.155207D-02  0.285838D-02  0.135928D-02  0.493763D-02  0.812149D-02
     21  0.153910D-02  0.160875D-02  0.239832D-02  0.263089D-02  0.428477D-02
     22 -0.785846D-03 -0.360059D-02  0.176632D-02 -0.236068D-02 -0.106027D-01
     23 -0.537893D-02 -0.504965D-02  0.102093D-02  0.732490D-02 -0.142344D-01
     24 -0.242362D-02 -0.493611D-02 -0.144231D-01  0.203539D-01  0.763989D-03
     25  0.362384D-03  0.585336D-03  0.129788D-02  0.499677D-02 -0.745987D-02
     26  0.657485D-03 -0.125477D-03  0.432091D-03 -0.465519D-02 -0.426647D-02
     27 -0.820283D-03 -0.272758D-03 -0.171986D-02 -0.691958D-02  0.534550D-02
                6             7             8             9            10 
      6  0.658159D+00
      7  0.180857D-01  0.818102D-01
      8  0.215545D-01  0.329113D-01  0.819151D-01
      9 -0.346367D-01  0.782520D-01  0.762736D-01  0.267924D+00
     10  0.638531D-02 -0.114727D-01  0.173348D-02 -0.936674D-03  0.322587D+00
     11  0.143788D-02 -0.121322D-01 -0.681658D-04 -0.303976D-03 -0.262862D-01
     12 -0.411488D-02 -0.312231D-01  0.414898D-02 -0.187493D-03  0.335765D-02
     13  0.157270D-02  0.149358D-02 -0.125115D-01 -0.101530D-02 -0.805116D-02
     14  0.900755D-02  0.249974D-02 -0.106383D-01 -0.184073D-02  0.138804D-02
     15 -0.441905D-02  0.763273D-02 -0.302651D-01 -0.232666D-02 -0.103383D-02
     16  0.379936D+00 -0.347887D-03 -0.148823D-02  0.168392D-02  0.496361D-03
     17  0.473050D+00 -0.160503D-02 -0.122437D-02  0.317852D-02  0.634501D-03
     18 -0.409851D+00 -0.139970D-02 -0.142484D-02  0.505502D-02 -0.144145D-02
     19 -0.580959D-02 -0.967381D-04 -0.472545D-04 -0.410581D-04  0.312277D-03
     20 -0.100644D-01 -0.110324D-03 -0.126773D-03  0.135935D-03 -0.414339D-04
     21  0.980977D-03 -0.248891D-03 -0.309717D-03  0.228846D-03  0.201424D-03
     22 -0.577973D-01  0.100354D-02  0.658979D-03 -0.211316D-02  0.106030D-02
     23 -0.966238D-01  0.975104D-03  0.211224D-02 -0.365104D-02  0.263784D-03
     24 -0.306699D-01  0.104816D-02  0.223779D-03 -0.326690D-03 -0.123627D-03
     25 -0.740470D-03 -0.280847D-03 -0.172950D-03  0.380625D-03 -0.195146D-03
     26 -0.349672D-02 -0.241810D-03 -0.923420D-04  0.315005D-03 -0.164816D-05
     27  0.130646D-02  0.402693D-03  0.672897D-04 -0.117883D-03  0.476858D-03
               11            12            13            14            15 
     11  0.539206D-01
     12 -0.519015D-02  0.538508D-01
     13  0.346804D-01  0.306872D-02  0.642417D-01
     14 -0.349908D-02 -0.102289D-02 -0.536510D-01  0.306913D+00
     15  0.935934D-03 -0.969937D-03 -0.804805D-02  0.194608D-01  0.554897D-01
     16  0.170445D-03 -0.530057D-03 -0.523618D-03 -0.303729D-03  0.152341D-02
     17  0.126835D-04  0.100387D-02 -0.108728D-02 -0.167885D-02  0.950293D-03
[...]
 Electronic               0.000              0.000              1.377
 Translational            0.889              2.981             38.044
 Rotational               0.889              2.981             24.787
 Vibrational             43.583             12.760             11.878
 Vibration     1          0.600              1.962              3.875
 Vibration     2          0.621              1.894              2.572
 Vibration     3          0.676              1.724              1.580
 Vibration     4          0.701              1.649              1.346
 Vibration     5          0.734              1.556              1.125
 Vibration     6          0.938              1.072              0.483
                       Q            Log10(Q)             Ln(Q)
 Total Bot       0.880149D-17        -17.055444        -39.271611
 Total V=0       0.285490D+14         13.455591         30.982643
 Vib (Bot)       0.445837D-29        -29.350824        -67.582770
 Vib (Bot)    1  0.255336D+01          0.407112          0.937409
 Vib (Bot)    2  0.127912D+01          0.106911          0.246171
 Vib (Bot)    3  0.708265D+00         -0.149804         -0.344937
 Vib (Bot)    4  0.602863D+00         -0.219781         -0.506065
 Vib (Bot)    5  0.510342D+00         -0.292139         -0.672674
 Vib (Bot)    6  0.261832D+00         -0.581977         -1.340052
 Vib (V=0)       0.144614D+02          1.160211          2.671484
 Vib (V=0)    1  0.310185D+01          0.491621          1.132000
 Vib (V=0)    2  0.187337D+01          0.272624          0.627739
 Vib (V=0)    3  0.136697D+01          0.135759          0.312598
 Vib (V=0)    4  0.128323D+01          0.108303          0.249378
 Vib (V=0)    5  0.121446D+01          0.084382          0.194297
 Vib (V=0)    6  0.106441D+01          0.027108          0.062418
 Electronic      0.200000D+01          0.301030          0.693147
 Translational   0.169300D+08          7.228656         16.644596
 Rotational      0.583034D+05          4.765694         10.973416
 
                                                    Gaussian input prepared by AS
 E
                                                             IR Spectrum
 
     3       3     33 3                             2                       11  1           11                                       
     5       3     11 0                             2                       55  4           10     9      7 6  5       3 3 2   1     
     0       0     00 4                             1                       54  6           09     2      2 8  8       5 1 7   5  8  
     3       6     64 5                             0                       03  1           81     3      3 0  1       9 3 3   8  1  
 
     X       X     XX X                             X                       XX  X           XX     X      X X  X       X X X   X  X  
     X       X      X X                             X                       XX                            X X  X       X X X         
     X       X                                      X                                                     X X  X       X   X         
     X       X                                      X                                                     X X  X       X   X         
     X                                              X                                                     X X  X           X         
     X                                                                                                    X X  X           X         
     X                                                                                                    X X  X           X         
     X                                                                                                    X X  X           X         
     X                                                                                                    X X  X           X         
     X                                                                                                    X X  X           X         
     X                                                                                                    X X  X           X         
     X                                                                                                      X  X           X         
     X                                                                                                         X           X         
     X                                                                                                         X           X         
                                                                                                               X           X         
                                                                                                               X                     
                                                                                                               X                     
                                                                                                               X                     
                                                                                                               X                     
                                                                                                               X                     
 
 ***** Axes restored to original set *****
 -------------------------------------------------------------------
 Center     Atomic                   Forces (Hartrees/Bohr)
 Number     Number              X              Y              Z
 -------------------------------------------------------------------
      1        6           0.000004085    0.000003380   -0.000002358
      2        6          -0.000000276    0.000000904   -0.000000805
      3        1           0.000005009    0.000002089    0.000005267
      4        1          -0.000005043    0.000002434    0.000001440
      5        1           0.000001415   -0.000004904   -0.000001405
      6        6          -0.000002099    0.000000327   -0.000002132
      7        1          -0.000001558    0.000000093   -0.000001462
      8        8          -0.000000637   -0.000003028    0.000000928
      9        1          -0.000000895   -0.000001294    0.000000528
 -------------------------------------------------------------------
 Cartesian Forces:  Max     0.000005267 RMS     0.000002587
 Force constants in Cartesian coordinates: 
                1             2             3             4             5 
      1  0.533432D+00
      2 -0.151012D-01  0.516471D+00
      3  0.131814D-01  0.229736D-01  0.517455D+00
      4 -0.102767D+00 -0.446551D-01  0.573975D-01  0.334140D+00
      5 -0.432170D-01 -0.124905D+00  0.762015D-01  0.292769D+00  0.458732D+00
      6  0.585367D-01  0.796251D-01 -0.163832D+00 -0.408494D+00 -0.512541D+00
      7 -0.139047D+00  0.256958D-02 -0.123860D+00  0.115173D-01  0.313238D-03
      8  0.304757D-02 -0.459628D-01  0.438599D-02  0.124731D-01 -0.516079D-02
      9 -0.124553D+00  0.406596D-02 -0.213357D+00 -0.972338D-02  0.591950D-02
     10 -0.251576D+00  0.868923D-01  0.592655D-01 -0.144763D-01 -0.105860D-02
     11  0.865587D-01 -0.834854D-01 -0.246290D-01 -0.246643D-01  0.695221D-02
     12  0.597172D-01 -0.247769D-01 -0.639056D-01  0.267351D-01 -0.717478D-02
     13 -0.505135D-01 -0.276850D-01 -0.106540D-01 -0.567311D-02 -0.176018D-01
     14 -0.276229D-01 -0.270480D+00 -0.849695D-01 -0.657221D-02 -0.238723D-01
     15 -0.106833D-01 -0.845747D-01 -0.774968D-01  0.526816D-02  0.319469D-01
     16  0.562857D-02 -0.363984D-03  0.235990D-02 -0.228743D+00 -0.233040D+00
     17 -0.143994D-02  0.617712D-02  0.300454D-02 -0.237513D+00 -0.319927D+00
     18  0.213734D-02  0.163785D-02 -0.484411D-03  0.323404D+00  0.402600D+00
     19  0.454816D-02 -0.117658D-02  0.162681D-02  0.503852D-02  0.174531D-02
     20 -0.146746D-02  0.314242D-02  0.181809D-02  0.285052D-02  0.643535D-02
     21  0.164919D-02  0.141630D-02  0.292297D-02  0.108313D-02  0.114684D-02
     22  0.961569D-04 -0.550396D-03  0.845930D-03 -0.822141D-03 -0.796930D-03
     23 -0.866297D-03 -0.121299D-02  0.117962D-02  0.594936D-02  0.158152D-02
     24 -0.110867D-03 -0.407727D-03 -0.967767D-03  0.591543D-02  0.202586D-02
     25  0.198101D-03  0.702907D-04 -0.163316D-03  0.178586D-02  0.886784D-03
     26  0.108551D-03  0.255813D-03  0.351058D-04 -0.637591D-03  0.163843D-03
     27  0.125104D-03  0.405448D-04 -0.334992D-03 -0.158536D-02 -0.124770D-03
                6             7             8             9            10 
      6  0.804480D+00
      7  0.165382D-01  0.151408D+00
      8  0.214678D-01 -0.149520D-02  0.508566D-01
      9 -0.274306D-01  0.134979D+00 -0.952059D-02  0.240325D+00
     10  0.821810D-02 -0.185780D-01  0.810701D-02  0.538360D-02  0.278752D+00
     11  0.764171D-02 -0.322098D-03 -0.156211D-02 -0.435870D-03 -0.932981D-01
     12 -0.137401D-01 -0.258525D-01  0.109611D-01  0.866083D-02 -0.703288D-01
     13 -0.263431D-02 -0.349213D-02 -0.202475D-01 -0.695084D-02  0.459678D-02
     14  0.246641D-02  0.496347D-03  0.191142D-02 -0.132565D-04 -0.126209D-02
     15  0.584120D-02 -0.222392D-02 -0.269790D-01 -0.954228D-02 -0.206439D-02
     16  0.335735D+00 -0.119046D-02 -0.141104D-02  0.827603D-04  0.992763D-03
     17  0.426889D+00 -0.136563D-02 -0.196641D-03  0.232625D-04  0.762736D-03
     18 -0.590469D+00  0.768832D-03  0.248979D-03  0.113076D-02 -0.552173D-03
     19 -0.428531D-02 -0.505297D-03 -0.602475D-03  0.506553D-03  0.242152D-03
     20 -0.773041D-02 -0.962551D-04  0.517528D-04  0.140490D-03 -0.190748D-03
     21  0.144661D-02 -0.394253D-03 -0.368054D-03  0.414453D-03  0.185575D-04
     22 -0.372700D-02  0.530689D-05  0.211712D-03  0.941770D-04  0.951657D-04
     23 -0.175697D-01 -0.102790D-04  0.268101D-03 -0.286490D-03  0.774122D-04
     24 -0.147848D-01  0.000000D+00 -0.272999D-03 -0.320280D-03  0.749397D-04
     25  0.113092D-03 -0.118226D-03 -0.831466D-04  0.180687D-03 -0.483660D-04
     26 -0.249225D-03 -0.896973D-04 -0.205494D-03  0.106997D-03 -0.299786D-04
     27 -0.151183D-02  0.449133D-04  0.768229D-04  0.119690D-03 -0.154046D-04
               11            12            13            14            15 
     11  0.909623D-01
     12  0.237432D-01  0.731499D-01
     13  0.304236D-01  0.105805D-01  0.542434D-01
     14 -0.113678D-01 -0.445636D-02  0.341538D-01  0.302365D+00
     15 -0.754997D-02 -0.417128D-02  0.975397D-02  0.888725D-01  0.853012D-01
     16  0.647968D-03 -0.290125D-03  0.830778D-03  0.216620D-03  0.796353D-03
     17 -0.119397D-02  0.107421D-02  0.118273D-03  0.471677D-03 -0.403920D-03
     18  0.136536D-02  0.230750D-03  0.687443D-03 -0.120472D-02 -0.120323D-02
     19  0.601700D-03 -0.676898D-03 -0.381341D-04 -0.181501D-04  0.546357D-04
     20 -0.391011D-03  0.558447D-03  0.317908D-03  0.461487D-03 -0.661609D-03
     21  0.800133D-04 -0.460499D-04  0.253179D-03  0.390910D-03 -0.581689D-03
     22  0.803302D-04  0.105453D-03  0.208348D-03  0.661813D-03 -0.106112D-02
     23  0.872373D-04  0.134501D-05  0.310457D-03  0.835949D-03 -0.108054D-02
     24 -0.184869D-03 -0.158898D-03 -0.105566D-02 -0.143533D-02  0.233895D-02
     25 -0.277915D-04  0.998004D-05 -0.162377D-03 -0.532419D-04  0.159642D-03
     26 -0.152714D-05  0.696696D-04  0.210290D-03 -0.324896D-03  0.430346D-03
     27 -0.306668D-04 -0.195682D-04  0.197176D-04  0.349320D-03 -0.486116D-03
               16            17            18            19            20 
     16  0.336847D+00
     17  0.345148D+00  0.472218D+00
     18 -0.457685D+00 -0.583454D+00  0.788660D+00
     19 -0.109937D+00 -0.105348D+00  0.128551D+00  0.100618D+00
     20 -0.105607D+00 -0.153560D+00  0.164635D+00  0.105906D+00  0.147442D+00
     21  0.124408D+00  0.158692D+00 -0.204971D+00 -0.125421D+00 -0.156703D+00
     22 -0.413921D-02 -0.422777D-03  0.710395D-03  0.748702D-03 -0.146834D-02
     23 -0.127834D-02 -0.231838D-02  0.167593D-01 -0.724697D-03 -0.285596D-02
     24 -0.327847D-02 -0.479240D-02  0.851313D-02 -0.556366D-03 -0.205321D-02
     25 -0.289181D-03  0.599605D-04  0.197841D-02 -0.714592D-03 -0.244945D-03
     26 -0.431210D-02 -0.167074D-02 -0.258713D-02 -0.383766D-03 -0.725968D-03
     27 -0.212846D-02 -0.103288D-02 -0.140748D-02  0.200428D-03 -0.337092D-05
               21            22            23            24            25 
     21  0.202612D+00
     22 -0.113003D-02  0.350676D+00
     23 -0.418921D-02 -0.121499D+00  0.504878D-01
     24 -0.216872D-02  0.393684D-01 -0.408294D-02  0.157562D-01
     25 -0.467119D-03 -0.346868D+00  0.118041D+00 -0.403566D-01  0.346217D+00
     26 -0.465741D-03  0.123783D+00 -0.468733D-01  0.112036D-01 -0.118649D+00
     27  0.370872D-03 -0.352062D-01  0.926864D-02 -0.820781D-02  0.385452D-01
               26            27 
     26  0.493822D-01
     27 -0.854364D-02  0.114772D-01
 Leave Link  716 at Wed Jan  6 00:52:08 2021, MaxMem=    33554432 cpu:         0.1
 (Enter /apps/applications/gaussian/G09.D01/2/default/g09/l9999.exe)
 1\1\GINC-DC1S0B3B\Freq\UB3LYP\3-21G\C3H5O1(2)\CHMRSH\06-Jan-2021\0\\#P
  b3lyp/3-21G scf=qc opt(calcall, ts, noeigentest, cartesian,maxcycle=1
 00)\\Gaussian input prepared by ASE\\0,2\C,0.3748265935,0.3652987887,-
 1.2932340668\C,-0.2334670525,-0.4505142813,-0.2455165822\H,-0.26615403
 13,0.3986551879,-2.182189933\H,1.3530044597,-0.0312328583,-1.590079637
 3\H,0.5091898404,1.3900136886,-0.9268540757\C,-0.7465938848,-1.0736088
 163,0.6590309493\H,-1.2344832612,-1.6830060053,1.3771312259\O,-0.35445
 04548,0.7051903396,2.0442822403\H,0.5981277909,0.3792039564,2.15742987
 97\\Version=ES64L-G09RevD.01\State=2-A\HF=-191.3314696\S2=0.754014\S2-
 1=0.\S2A=0.750009\RMSD=0.000e+00\RMSF=2.587e-06\ZeroPoint=0.0663331\Th
 ermal=0.0722871\Dipole=0.6567583,-0.2530441,-0.4073081\DipoleDeriv=0.0
 661723,0.0016345,-0.0188806,-0.0150139,0.0531441,0.0621811,-0.0058129,
 -0.0036912,0.0637851,-0.079218,-0.0610451,-0.1674399,0.0303399,-0.1462
 255,-0.3386967,-0.0491013,0.0298881,0.2426781,0.0376113,-0.0105532,-0.
 0518487,-0.0178356,0.0933532,0.0321725,-0.0622052,0.029648,-0.0595765,
 -0.0535175,0.0435924,0.0774009,0.0497071,0.0613011,0.012251,0.0590668,
 0.0089331,0.0429599,0.0968273,-0.0307272,0.0361077,-0.0355226,-0.04312
 63,-0.0047168,0.0139776,-0.0470157,0.024045,-0.2102824,0.0630393,0.096
 6858,-0.059855,-0.2706573,0.1096679,0.0011762,-0.1191162,-0.5934198,0.
 2180262,-0.0130096,0.0078502,-0.0027509,0.203986,0.011684,-0.0089145,-
 0.0097663,0.2284662,0.0076153,-0.1273618,0.0385175,-0.0608017,-0.18210
 93,0.0859446,0.0983646,0.0953945,-0.250536,-0.0832344,0.1344306,-0.018
 3928,0.1117326,0.2303341,0.0295126,-0.0465512,0.0157257,0.3015982\Pola
 r=25.3943107,5.7362338,29.7886956,-5.5969545,-1.202683,46.2255982\PG=C
 01 [X(C3H5O1)]\NImag=1\\0.53343229,-0.01510120,0.51647120,0.01318141,0
 .02297356,0.51745536,-0.10276696,-0.04465506,0.05739753,0.33413972,-0.
 04321698,-0.12490495,0.07620153,0.29276917,0.45873200,0.05853671,0.079
 62511,-0.16383154,-0.40849422,-0.51254068,0.80447956,-0.13904694,0.002
 56958,-0.12385983,0.01151726,0.00031324,0.01653825,0.15140847,0.003047
 57,-0.04596281,0.00438599,0.01247310,-0.00516079,0.02146779,-0.0014952
 0,0.05085657,-0.12455280,0.00406596,-0.21335726,-0.00972338,0.00591950
 ,-0.02743055,0.13497926,-0.00952059,0.24032464,-0.25157583,0.08689232,
 0.05926554,-0.01447627,-0.00105860,0.00821810,-0.01857799,0.00810701,0
 .00538360,0.27875159,0.08655868,-0.08348537,-0.02462895,-0.02466429,0.
 00695221,0.00764171,-0.00032210,-0.00156211,-0.00043587,-0.09329807,0.
 09096229,0.05971724,-0.02477689,-0.06390558,0.02673512,-0.00717478,-0.
 01374008,-0.02585249,0.01096111,0.00866083,-0.07032877,0.02374324,0.07
 314987,-0.05051354,-0.02768496,-0.01065398,-0.00567311,-0.01760184,-0.
 00263431,-0.00349213,-0.02024752,-0.00695084,0.00459678,0.03042356,0.0
 1058049,0.05424338,-0.02762292,-0.27048043,-0.08496950,-0.00657221,-0.
 02387232,0.00246641,0.00049635,0.00191142,-0.00001326,-0.00126209,-0.0
 1136775,-0.00445636,0.03415382,0.30236487,-0.01068333,-0.08457471,-0.0
 7749678,0.00526816,0.03194693,0.00584120,-0.00222392,-0.02697905,-0.00
 954228,-0.00206439,-0.00754997,-0.00417128,0.00975397,0.08887253,0.085
 30124,0.00562857,-0.00036398,0.00235990,-0.22874289,-0.23304016,0.3357
 3468,-0.00119046,-0.00141104,0.00008276,0.00099276,0.00064797,-0.00029
 012,0.00083078,0.00021662,0.00079635,0.33684677,-0.00143994,0.00617712
 ,0.00300454,-0.23751300,-0.31992685,0.42688901,-0.00136563,-0.00019664
 ,0.00002326,0.00076274,-0.00119397,0.00107421,0.00011827,0.00047168,-0
 .00040392,0.34514818,0.47221765,0.00213734,0.00163785,-0.00048441,0.32
 340359,0.40259957,-0.59046860,0.00076883,0.00024898,0.00113076,-0.0005
 5217,0.00136536,0.00023075,0.00068744,-0.00120472,-0.00120323,-0.45768
 499,-0.58345393,0.78865985,0.00454816,-0.00117658,0.00162681,0.0050385
 2,0.00174531,-0.00428531,-0.00050530,-0.00060247,0.00050655,0.00024215
 ,0.00060170,-0.00067690,-0.00003813,-0.00001815,0.00005464,-0.10993714
 ,-0.10534780,0.12855115,0.10061763,-0.00146746,0.00314242,0.00181809,0
 .00285052,0.00643535,-0.00773041,-0.00009626,0.00005175,0.00014049,-0.
 00019075,-0.00039101,0.00055845,0.00031791,0.00046149,-0.00066161,-0.1
 0560713,-0.15355987,0.16463472,0.10590646,0.14744180,0.00164919,0.0014
 1630,0.00292297,0.00108313,0.00114684,0.00144661,-0.00039425,-0.000368
 05,0.00041445,0.00001856,0.00008001,-0.00004605,0.00025318,0.00039091,
 -0.00058169,0.12440834,0.15869210,-0.20497076,-0.12542100,-0.15670315,
 0.20261232,0.00009616,-0.00055040,0.00084593,-0.00082214,-0.00079693,-
 0.00372700,0.00000531,0.00021171,0.00009418,0.00009517,0.00008033,0.00
 010545,0.00020835,0.00066181,-0.00106112,-0.00413921,-0.00042278,0.000
 71039,0.00074870,-0.00146834,-0.00113003,0.35067615,-0.00086630,-0.001
 21299,0.00117962,0.00594936,0.00158152,-0.01756971,-0.00001028,0.00026
 810,-0.00028649,0.00007741,0.00008724,0.00000135,0.00031046,0.00083595
 ,-0.00108054,-0.00127834,-0.00231838,0.01675929,-0.00072470,-0.0028559
 6,-0.00418921,-0.12149864,0.05048780,-0.00011087,-0.00040773,-0.000967
 77,0.00591543,0.00202586,-0.01478476,-0.00000076,-0.00027300,-0.000320
 28,0.00007494,-0.00018487,-0.00015890,-0.00105566,-0.00143533,0.002338
 95,-0.00327847,-0.00479240,0.00851313,-0.00055637,-0.00205321,-0.00216
 872,0.03936835,-0.00408294,0.01575615,0.00019810,0.00007029,-0.0001633
 2,0.00178586,0.00088678,0.00011309,-0.00011823,-0.00008315,0.00018069,
 -0.00004837,-0.00002779,0.00000998,-0.00016238,-0.00005324,0.00015964,
 -0.00028918,0.00005996,0.00197841,-0.00071459,-0.00024494,-0.00046712,
 -0.34686848,0.11804101,-0.04035660,0.34621726,0.00010855,0.00025581,0.
 00003511,-0.00063759,0.00016384,-0.00024922,-0.00008970,-0.00020549,0.
 00010700,-0.00002998,-0.00000153,0.00006967,0.00021029,-0.00032490,0.0
 0043035,-0.00431210,-0.00167074,-0.00258713,-0.00038377,-0.00072597,-0
 .00046574,0.12378322,-0.04687327,0.01120361,-0.11864893,0.04938225,0.0
 0012510,0.00004054,-0.00033499,-0.00158536,-0.00012477,-0.00151183,0.0
 0004491,0.00007682,0.00011969,-0.00001540,-0.00003067,-0.00001957,0.00
 001972,0.00034932,-0.00048612,-0.00212846,-0.00103288,-0.00140748,0.00
 020043,-0.00000337,0.00037087,-0.03520616,0.00926864,-0.00820781,0.038
 54522,-0.00854364,0.01147724\\-0.00000408,-0.00000338,0.00000236,0.000
 00028,-0.00000090,0.00000080,-0.00000501,-0.00000209,-0.00000527,0.000
 00504,-0.00000243,-0.00000144,-0.00000141,0.00000490,0.00000141,0.0000
 0210,-0.00000033,0.00000213,0.00000156,-0.00000009,0.00000146,0.000000
 64,0.00000303,-0.00000093,0.00000090,0.00000129,-0.00000053\\\@


 HIGGLEDY-PIGGLEDY
 NIC'LAUS COPERNICUS
 LOOKED AT THE UNIVERSE,
 SPOKE TO THE THRONG;
 GIVE UP YOUR PTOLOMY,
 RISE UP AND FOLLOW ME,
 HELIOCENTRICALLY
 PTOLEMY'S WRONG.
   -- NANCY L. STARK
 Job cpu time:       0 days  0 hours 14 minutes 32.4 seconds.
 File lengths (MBytes):  RWF=      9 Int=      0 D2E=      0 Chk=      1 Scr=      1
 Normal termination of Gaussian 09 at Wed Jan  6 00:52:08 2021.
