9
Properties=species:S:1:pos:R:3 energy=-5228.932410805784 pbc="F F F"
C       -6.39964000       1.91856100      -1.30906700
C       -6.61300400       1.16590800      -0.01922300
H       -6.96176700       1.45730900      -2.12215800
H       -5.33232300       1.92480700      -1.55707500
H       -6.72093200       2.95861600      -1.18351200
C       -7.37632100       0.09997700       0.09216200
H       -7.71658600      -0.61910700       0.81698200
O       -5.87694100       1.78001100       1.01869600
H       -6.02325300       1.27763700       1.86503300
