9
Properties=species:S:1:pos:R:3:momenta:R:3:forces:R:3 pbc="F F F"
C        0.34087346       0.41888562      -1.17444959      -0.44553168       0.03092617       0.65951880       0.00352383       0.00870067      -0.01280346
C       -0.27207242      -0.26819127      -0.07293523       0.54727222      -0.02443883       1.73343622       2.33072740       1.22323388       2.75457800
H       -0.05260192       0.06950845      -2.14472048       0.01639025      -0.06049837      -0.12127320      -0.00805553      -0.00422000      -0.00570650
H        1.43603790       0.28118289      -1.18855291      -0.20362021       0.10431964      -0.40254628       0.01443529       0.01083064       0.00246661
H        0.15499646       1.50867540      -1.11445448      -0.12256080      -0.06375935       0.36007520      -0.01990457       0.00615745      -0.00012060
C       -0.86016065      -0.98460823       0.75514362      -0.19144333       0.76240273      -0.29141258      -0.01592655      -0.00321051      -0.01034590
H       -1.39188562      -1.62592322       1.36713775       0.22127963      -0.14953689      -0.34176448      -0.01360544      -0.00080635      -0.02937262
O       -0.10278118       0.42329455       1.58030741      -0.85973741      -1.45730964      -1.72617220      -2.26870488      -1.25433432      -2.72575368
H        0.74759396       0.17717581       1.99252390       0.16584076       0.39922478       0.13417502      -0.02248955       0.01364854       0.02705816
