9
Properties=species:S:1:pos:R:3 energy=-5227.481854151698 pbc="F F F"
C       -1.06958481      -0.05711106      -0.64571773
C        0.36104403      -0.03550691      -0.56491641
H       -1.43963523      -0.98653054      -1.11180255
H       -1.45944392       0.78994505      -1.23605575
H       -1.52762813       0.00827596       0.36214393
C        1.56485502      -0.01680930      -0.48951730
H        2.59468410      -0.00221993      -0.44511199
O       -0.00007714       0.14148700       2.02186243
H        0.97578608       0.15846972       2.10911538
