 Entering Gaussian System, Link 0=g09
 Initial command:
 /apps/applications/gaussian/G09.D01/2/default/g09/l1.exe "/nobackup/chmrsh/Scratch/Gau-130915.inp" -scrdir="/nobackup/chmrsh/Scratch/"
 Entering Link 1 = /apps/applications/gaussian/G09.D01/2/default/g09/l1.exe PID=    130916.
  
 Copyright (c) 1988,1990,1992,1993,1995,1998,2003,2009,2013,
            Gaussian, Inc.  All Rights Reserved.
  
 This is part of the Gaussian(R) 09 program.  It is based on
 the Gaussian(R) 03 system (copyright 2003, Gaussian, Inc.),
 the Gaussian(R) 98 system (copyright 1998, Gaussian, Inc.),
 the Gaussian(R) 94 system (copyright 1995, Gaussian, Inc.),
 the Gaussian 92(TM) system (copyright 1992, Gaussian, Inc.),
 the Gaussian 90(TM) system (copyright 1990, Gaussian, Inc.),
 the Gaussian 88(TM) system (copyright 1988, Gaussian, Inc.),
 the Gaussian 86(TM) system (copyright 1986, Carnegie Mellon
 University), and the Gaussian 82(TM) system (copyright 1983,
 Carnegie Mellon University). Gaussian is a federally registered
 trademark of Gaussian, Inc.
  
 This software contains proprietary and confidential information,
 including trade secrets, belonging to Gaussian, Inc.
  
 This software is provided under written license and may be
 used, copied, transmitted, or stored only in accord with that
 written license.
  
 The following legend is applicable only to US Government
 contracts under FAR:
  
                    RESTRICTED RIGHTS LEGEND
  
 Use, reproduction and disclosure by the US Government is
 subject to restrictions as set forth in subparagraphs (a)
 and (c) of the Commercial Computer Software - Restricted
 Rights clause in FAR 52.227-19.
  
 Gaussian, Inc.
 340 Quinnipiac St., Bldg. 40, Wallingford CT 06492
  
  
 ---------------------------------------------------------------
 Warning -- This program may not be used in any manner that
 competes with the business of Gaussian, Inc. or will provide
 assistance to any competitor of Gaussian, Inc.  The licensee
 of this program is prohibited from giving any competitor of
 Gaussian, Inc. access to this program.  By using this program,
 the user acknowledges that Gaussian, Inc. is engaged in the
 business of creating and licensing software in the field of
 computational chemistry and represents and warrants to the
 licensee that it is not a competitor of Gaussian, Inc. and that
 it will not use this program in any manner prohibited above.
 ---------------------------------------------------------------
  

 Cite this work as:
 Gaussian 09, Revision D.01,
 M. J. Frisch, G. W. Trucks, H. B. Schlegel, G. E. Scuseria, 
 M. A. Robb, J. R. Cheeseman, G. Scalmani, V. Barone, B. Mennucci, 
 G. A. Petersson, H. Nakatsuji, M. Caricato, X. Li, H. P. Hratchian, 
 A. F. Izmaylov, J. Bloino, G. Zheng, J. L. Sonnenberg, M. Hada, 
 M. Ehara, K. Toyota, R. Fukuda, J. Hasegawa, M. Ishida, T. Nakajima, 
 Y. Honda, O. Kitao, H. Nakai, T. Vreven, J. A. Montgomery, Jr., 
 J. E. Peralta, F. Ogliaro, M. Bearpark, J. J. Heyd, E. Brothers, 
 K. N. Kudin, V. N. Staroverov, T. Keith, R. Kobayashi, J. Normand, 
 K. Raghavachari, A. Rendell, J. C. Burant, S. S. Iyengar, J. Tomasi, 
 M. Cossi, N. Rega, J. M. Millam, M. Klene, J. E. Knox, J. B. Cross, 
 V. Bakken, C. Adamo, J. Jaramillo, R. Gomperts, R. E. Stratmann, 
 O. Yazyev, A. J. Austin, R. Cammi, C. Pomelli, J. W. Ochterski, 
 R. L. Martin, K. Morokuma, V. G. Zakrzewski, G. A. Voth, 
 P. Salvador, J. J. Dannenberg, S. Dapprich, A. D. Daniels, 
 O. Farkas, J. B. Foresman, J. V. Ortiz, J. Cioslowski, 
 and D. J. Fox, Gaussian, Inc., Wallingford CT, 2013.
 
 ******************************************
 Gaussian 09:  ES64L-G09RevD.01 24-Apr-2013
                 4-Feb-2021 
 ******************************************
 %nprocshared=1
 Will use up to    1 processors via shared memory.
 ----------------------------------------------------------------------
 #P upm6 scf=qc opt(calcall, ts, noeigentest, cartesian,maxcycle=100) N
 oSymm, guess=mix
 ----------------------------------------------------------------------
 1/5=1,6=100,10=4,11=1,14=-1,18=10,26=1,38=1/1,3;
 2/12=2,15=1,17=6,18=5,29=2,40=1/2;
 3/5=2,16=1,25=1,41=3900000,71=2,116=2,140=1/1,2,3;
 4/13=-1,35=1/1;
 5/5=2,8=3,35=1,38=5/8;
 8/6=4,10=90,11=11/1;
 11/6=1,8=1,9=11,15=111,16=1,31=1/1,2,10;
 10/6=1,31=1/2;
 6/7=2,8=2,9=2,10=2,18=1,28=1/1;
 7/7=1,10=1,25=1,30=1/1,2,3,16;
 1/5=1,6=100,10=4,11=1,14=-1,18=10,26=1/3(3);
 2/15=1,29=1/2;
 7/7=1,8=1,9=1,25=1,30=1,44=-1/16;
 99/12=1/99;
 2/15=1,29=1/2;
 3/5=2,16=1,25=1,41=3900000,71=2,116=2,135=20,140=1/1,2,3;
 4/5=5,16=3,35=1/1;
 5/5=2,8=3,35=1,38=5/8;
 8/6=4,10=90,11=11/1;
 11/6=1,8=1,9=11,15=111,16=1,31=1/1,2,10;
 10/6=1,31=1/2;
 7/7=1,10=1,25=1,30=1/1,2,3,16;
 1/5=1,6=100,10=4,11=1,14=-1,18=10,26=1/3(-8);
 2/15=1,29=1/2;
 6/7=2,8=2,9=2,10=2,18=1,19=2,28=1/1;
 7/7=1,8=1,9=1,25=1,30=1,44=-1/16;
 99/12=1/99;
 Leave Link    1 at Thu Feb  4 08:41:10 2021, MaxMem=           0 cpu:         0.0
 (Enter /apps/applications/gaussian/G09.D01/2/default/g09/l101.exe)
 ------------------------------
 Gaussian input prepared by ASE
 ------------------------------
 Symbolic Z-matrix:
 Charge =  0 Multiplicity = 2
 O                    -2.66994  -1.27238   1.28492 
 C                    -2.87914  -0.15753   1.70469 
 C                    -1.97112   1.03019   1.48112 
 C                    -0.66395   0.67328   0.7718 
 C                    -0.82751   0.49345  -0.74342 
 C                     0.3971    0.97422  -1.49173 
 H                     1.29331   1.03089  -0.84201 
 C                     0.21873   2.28064  -2.25355 
 O                    -0.80903   2.91473  -2.21611 
 C                     1.42062   2.74742  -3.0201 
 H                    -3.78113   0.07516   2.29396 
 H                    -2.52353   1.80336   0.89889 
 H                    -1.73783   1.51842   2.4526 
 H                     0.0794    1.46301   0.9942 
 H                    -0.25659  -0.2678    1.19449 
 H                    -1.00919  -0.58433  -0.98475 
 H                    -1.7382    1.00603  -1.11417 
 H                     2.35739   2.6813   -2.45718 
 H                     1.55891   2.15477  -3.93703 
 H                     1.30209   3.79707  -3.33085 
 O                     0.17777  -0.97398  -2.75669 
 O                     0.89917  -0.08871  -2.48126 
 
 NAtoms=     22 NQM=       22 NQMF=       0 NMMI=      0 NMMIF=      0
                NMic=       0 NMicF=      0.
                    Isotopes and Nuclear Properties:
 (Nuclear quadrupole moments (NQMom) in fm**2, nuclear magnetic moments (NMagM)
  in nuclear magnetons)

  Atom         1           2           3           4           5           6           7           8           9          10
 IAtWgt=          16          12          12          12          12          12           1          12          16          12
 AtmWgt=  15.9949146  12.0000000  12.0000000  12.0000000  12.0000000  12.0000000   1.0078250  12.0000000  15.9949146  12.0000000
 NucSpn=           0           0           0           0           0           0           1           0           0           0
 AtZEff=   0.0000000   0.0000000   0.0000000   0.0000000   0.0000000   0.0000000   0.0000000   0.0000000   0.0000000   0.0000000
 NQMom=    0.0000000   0.0000000   0.0000000   0.0000000   0.0000000   0.0000000   0.0000000   0.0000000   0.0000000   0.0000000
 NMagM=    0.0000000   0.0000000   0.0000000   0.0000000   0.0000000   0.0000000   2.7928460   0.0000000   0.0000000   0.0000000
 AtZNuc=   8.0000000   6.0000000   6.0000000   6.0000000   6.0000000   6.0000000   1.0000000   6.0000000   8.0000000   6.0000000

  Atom        11          12          13          14          15          16          17          18          19          20
 IAtWgt=           1           1           1           1           1           1           1           1           1           1
 AtmWgt=   1.0078250   1.0078250   1.0078250   1.0078250   1.0078250   1.0078250   1.0078250   1.0078250   1.0078250   1.0078250
 NucSpn=           1           1           1           1           1           1           1           1           1           1
 AtZEff=   0.0000000   0.0000000   0.0000000   0.0000000   0.0000000   0.0000000   0.0000000   0.0000000   0.0000000   0.0000000
 NQMom=    0.0000000   0.0000000   0.0000000   0.0000000   0.0000000   0.0000000   0.0000000   0.0000000   0.0000000   0.0000000
 NMagM=    2.7928460   2.7928460   2.7928460   2.7928460   2.7928460   2.7928460   2.7928460   2.7928460   2.7928460   2.7928460
 AtZNuc=   1.0000000   1.0000000   1.0000000   1.0000000   1.0000000   1.0000000   1.0000000   1.0000000   1.0000000   1.0000000

  Atom        21          22
 IAtWgt=          16          16
 AtmWgt=  15.9949146  15.9949146
 NucSpn=           0           0
 AtZEff=   0.0000000   0.0000000
 NQMom=    0.0000000   0.0000000
 NMagM=    0.0000000   0.0000000
 AtZNuc=   8.0000000   8.0000000
 Leave Link  101 at Thu Feb  4 08:41:10 2021, MaxMem=    33554432 cpu:         0.2
 (Enter /apps/applications/gaussian/G09.D01/2/default/g09/l103.exe)

 GradGradGradGradGradGradGradGradGradGradGradGradGradGradGradGradGradGrad
 Berny optimization.
 Initialization pass.
 No Z-matrix variables, so optimization will use Cartesian coordinates.
 Trust Radius=3.00D-01 FncErr=1.00D-07 GrdErr=1.00D-07
 Number of steps in this run=    100 maximum allowed number of steps=    132.
 Search for a saddle point of order  1.
 GradGradGradGradGradGradGradGradGradGradGradGradGradGradGradGradGradGrad

 Leave Link  103 at Thu Feb  4 08:41:10 2021, MaxMem=    33554432 cpu:         0.0
 (Enter /apps/applications/gaussian/G09.D01/2/default/g09/l202.exe)
 ---------------------------------------------------------------------------------------------------
                            Z-MATRIX (ANGSTROMS AND DEGREES)
   CD    Cent   Atom    N1       Length/X        N2       Alpha/Y        N3        Beta/Z          J
 ---------------------------------------------------------------------------------------------------
      1      1  O        0  -2.669936         -1.272381          1.284920
      2      2  C        0  -2.879144         -0.157528          1.704686
      3      3  C        0  -1.971124          1.030192          1.481120
      4      4  C        0  -0.663953          0.673280          0.771796
      5      5  C        0  -0.827510          0.493449         -0.743415
      6      6  C        0   0.397095          0.974222         -1.491735
      7      7  H        0   1.293308          1.030888         -0.842011
      8      8  C        0   0.218731          2.280645         -2.253551
      9      9  O        0  -0.809028          2.914734         -2.216115
     10     10  C        0   1.420621          2.747422         -3.020100
     11     11  H        0  -3.781134          0.075163          2.293962
     12     12  H        0  -2.523531          1.803358          0.898892
     13     13  H        0  -1.737834          1.518423          2.452597
     14     14  H        0   0.079400          1.463011          0.994195
     15     15  H        0  -0.256586         -0.267795          1.194494
     16     16  H        0  -1.009187         -0.584331         -0.984754
     17     17  H        0  -1.738196          1.006025         -1.114170
     18     18  H        0   2.357386          2.681301         -2.457182
     19     19  H        0   1.558910          2.154766         -3.937028
     20     20  H        0   1.302090          3.797071         -3.330852
     21     21  O        0   0.177773         -0.973984         -2.756693
     22     22  O        0   0.899172         -0.088712         -2.481264
 ---------------------------------------------------------------------------------------------------
                         Z-Matrix orientation:                         
 ---------------------------------------------------------------------
 Center     Atomic      Atomic             Coordinates (Angstroms)
 Number     Number       Type             X           Y           Z
 ---------------------------------------------------------------------
      1          8           0       -2.669936   -1.272381    1.284920
      2          6           0       -2.879144   -0.157528    1.704686
      3          6           0       -1.971124    1.030192    1.481120
      4          6           0       -0.663953    0.673280    0.771796
      5          6           0       -0.827510    0.493449   -0.743415
      6          6           0        0.397095    0.974222   -1.491735
      7          1           0        1.293308    1.030888   -0.842011
      8          6           0        0.218731    2.280645   -2.253551
      9          8           0       -0.809028    2.914734   -2.216115
     10          6           0        1.420621    2.747422   -3.020100
     11          1           0       -3.781134    0.075163    2.293962
     12          1           0       -2.523531    1.803358    0.898892
     13          1           0       -1.737834    1.518423    2.452597
     14          1           0        0.079400    1.463011    0.994195
     15          1           0       -0.256586   -0.267795    1.194494
     16          1           0       -1.009187   -0.584331   -0.984754
     17          1           0       -1.738196    1.006025   -1.114170
     18          1           0        2.357386    2.681301   -2.457182
     19          1           0        1.558910    2.154766   -3.937028
     20          1           0        1.302090    3.797071   -3.330852
     21          8           0        0.177773   -0.973984   -2.756693
     22          8           0        0.899172   -0.088712   -2.481264
 ---------------------------------------------------------------------
                    Distance matrix (angstroms):
                    1          2          3          4          5
     1  O    0.000000
     2  C    1.209491   0.000000
     3  C    2.414265   1.511675   0.000000
     4  C    2.841277   2.543147   1.529451   0.000000
     5  C    3.259883   3.259781   2.558223   1.534586   0.000000
     6  C    4.707836   4.715051   3.801244   2.517928   1.513533
     7  H    5.053334   5.030642   4.006676   2.561861   2.190075
     8  C    5.786982   5.586515   4.506314   3.537722   2.563044
     9  O    5.766469   5.394150   4.309468   3.738018   2.834044
    10  C    7.171099   7.017857   5.891841   4.798541   3.913793
    11  H    2.017127   1.102260   2.202029   3.520163   4.257291
    12  H    3.103324   2.149613   1.114419   2.179739   2.699912
    13  H    3.165575   2.161197   1.112008   2.166236   3.477608
    14  H    3.889182   3.447307   2.151529   1.107118   2.186739
    15  H    2.615650   2.673998   2.169462   1.109164   2.158921
    16  H    2.895328   3.303330   3.100410   2.187747   1.119312
    17  H    3.437282   3.256004   2.605833   2.195811   1.108848
    18  H    7.410054   7.266453   6.080492   4.856639   4.226967
    19  H    7.543025   7.541350   6.563699   5.413774   4.319044
    20  H    7.923489   7.647105   6.443960   5.518616   4.705735
    21  O    4.953093   5.469483   5.156893   3.983995   2.686492
    22  O    5.322006   5.639378   5.019067   3.688684   2.518027
                    6          7          8          9         10
     6  C    0.000000
     7  H    1.108399   0.000000
     8  C    1.522800   2.170035   0.000000
     9  O    2.396883   3.139562   1.208205   0.000000
    10  C    2.554945   2.776106   1.500006   2.376072   0.000000
    11  H    5.709414   6.041333   6.445382   6.102244   7.901803
    12  H    3.864275   4.265643   4.205437   3.725312   5.639689
    13  H    4.517945   4.503327   5.153344   4.960770   6.437133
    14  H    2.553369   2.243202   3.351983   3.633579   4.423025
    15  H    3.030797   2.869861   4.313871   4.697439   5.446775
    16  H    2.159570   2.816166   3.365370   3.714804   4.598606
    17  H    2.168649   3.043798   2.598540   2.391821   4.079603
    18  H    2.772895   2.542617   2.185369   3.184145   1.094887
    19  H    2.953466   3.303450   2.155463   3.024273   1.100510
    20  H    3.488531   3.721045   2.152625   2.545186   1.101082
    21  O    2.333180   2.988301   3.293545   4.048226   3.932292
    22  O    1.536580   2.023858   2.475622   3.465392   2.933583
                   11         12         13         14         15
    11  H    0.000000
    12  H    2.552341   0.000000
    13  H    2.506640   1.764230   0.000000
    14  H    4.303399   2.626818   2.330739   0.000000
    15  H    3.707950   3.084817   2.639601   1.774457   0.000000
    16  H    4.343801   3.397414   4.094860   3.048421   2.327171
    17  H    4.081111   2.303238   3.603384   2.820939   3.024519
    18  H    8.188209   5.988103   6.498388   4.311085   5.372593
    19  H    8.465582   6.338449   7.218086   5.194655   5.957965
    20  H    8.445727   6.041606   6.919657   5.064468   6.279440
    21  O    6.502521   5.326723   6.084270   4.474124   4.037233
    22  O    6.688416   5.169166   5.820624   3.893416   3.857336
                   16         17         18         19         20
    16  H    0.000000
    17  H    1.754263   0.000000
    18  H    4.915914   4.624287   0.000000
    19  H    4.776369   4.489883   1.762030   0.000000
    20  H    5.481137   4.684758   1.766888   1.769343   0.000000
    21  O    2.168057   3.207688   4.266325   3.617984   4.935253
    22  O    2.475280   3.165929   3.130486   2.754578   3.997932
                   21         22
    21  O    0.000000
    22  O    1.174727   0.000000
 Symmetry turned off by external request.
 Stoichiometry    C7H11O4(2)
 Framework group  C1[X(C7H11O4)]
 Deg. of freedom    60
 Full point group                 C1      NOp   1
 Rotational constants (GHZ):      1.7632515      0.5655824      0.4690090
 Leave Link  202 at Thu Feb  4 08:41:11 2021, MaxMem=    33554432 cpu:         0.0
 (Enter /apps/applications/gaussian/G09.D01/2/default/g09/l301.exe)
 Standard basis: VSTO-6G (5D, 7F)
 Ernie: Thresh=  0.10000D-02 Tol=  0.10000D-05 Strict=F.
  NNHCO=     0 NNPyr=     0 NCTC=     0               EPep=         0.000000000
    EC=       299.295239731  ECS=         4.494671106   EG=         0.375690273
   EHC=         0.002013169  EAt=       -76.388488019  AtH=         3.199295150
 EPDDG=         0.000000000  ECC=       304.167614280 EAtT=        79.587783169
    55 basis functions,   330 primitive gaussians,    55 cartesian basis functions
    32 alpha electrons       31 beta electrons
       nuclear repulsion energy       383.7553974482 Hartrees.
 IExCor=    0 DFT=F Ex=HF Corr=None ExCW=0 ScaHFX=  1.000000
 ScaDFX=  1.000000  1.000000  1.000000  1.000000 ScalE2=  1.000000  1.000000
 IRadAn=      0 IRanWt=     -1 IRanGd=            0 ICorTp=0 IEmpDi=  4
 Integral buffers will be    131072 words long.
 Regular integral format.
 Two-electron integral symmetry is turned off.
 Leave Link  301 at Thu Feb  4 08:41:11 2021, MaxMem=    33554432 cpu:         0.1
 (Enter /apps/applications/gaussian/G09.D01/2/default/g09/l302.exe)
 Do NDO integrals.
 NPDir=0 NMtPBC=     1 NCelOv=     1 NCel=       1 NClECP=     1 NCelD=      1
         NCelK=      1 NCelE2=     1 NClLst=     1 CellRange=     0.0.
 One-electron integrals computed using PRISM.
 NBasis=    55 RedAO= F EigKep=  0.00D+00  NBF=    55
 NBsUse=    55 1.00D-04 EigRej=  0.00D+00 NBFU=    55
 Leave Link  302 at Thu Feb  4 08:41:11 2021, MaxMem=    33554432 cpu:         0.1
 (Enter /apps/applications/gaussian/G09.D01/2/default/g09/l303.exe)
 DipDrv:  MaxL=1.
 Leave Link  303 at Thu Feb  4 08:41:11 2021, MaxMem=    33554432 cpu:         0.1
 (Enter /apps/applications/gaussian/G09.D01/2/default/g09/l401.exe)
 Simple Huckel Guess.
 JPrj=0 DoOrth=F DoCkMO=T.
 Mixing orbitals, IMix= 1 IMixAn=  0 NRI=1 NE=   32 Coef=  7.07106781D-01  7.07106781D-01
 Mixing orbitals, IMix= 1 IMixAn=  0 NRI=1 NE=   31 Coef= -7.07106781D-01  7.07106781D-01
 Initial guess <Sx>= 0.0000 <Sy>= 0.0000 <Sz>= 0.5000 <S**2>= 1.0000 S= 0.6180
 Leave Link  401 at Thu Feb  4 08:41:11 2021, MaxMem=    33554432 cpu:         0.1
 (Enter /apps/applications/gaussian/G09.D01/2/default/g09/l508.exe)
 Direct SCF.
 Tight linear equation convergence will be used.
 UPM6 wavefunction.
 Quadratic Convergence SCF Method.
 Line search only if initial step raises energy.
 Two-electron integral symmetry not used.
 ReadGW:  IGet=1 IStart=       59293 Next=       59293 LGW=           0.
 Keep J ints in memory in canonical form, NReq=909807.
 FoFCou: FMM=F IPFlag=           0 FMFlag=           0 FMFlg1=           0
         NFxFlg=           0 DoJE=F BraDBF=F KetDBF=F FulRan=T
         wScrn=  0.000000 ICntrl=     600 IOpCl=  2 I1Cent=           0 NGrid=           0
         NMat0=    1 NMatS0=    121 NMatT0=    0 NMatD0=    1 NMtDS0=    0 NMtDT0=    0
 Symmetry not used in FoFCou.
 Iteration   1 EE= 0.684997043874660                                    Grad=5.850D-01 Max rot=    8.4012 deg.
 Gradient too large for Newton-Raphson -- use scaled steepest descent instead.
 Alpha Gap=     0.097 HL deriv= 1.47D+00
  Beta Gap=     0.276 HL deriv= 4.36D-03
     ILin= 1 X=0.000D+00 Y= 6.849970438747D-01 DE= 0.00D+00 F= -1.29D+00
     ILin= 2 X=3.000D-01 Y= 3.478408082323D-01 DE=-3.37D-01 F= -9.08D-01
     ILin= 3 X=4.000D-01 Y= 2.656383929650D-01 DE=-4.19D-01 F= -7.34D-01
     ILin= 4 X=6.000D-01 Y= 1.542200298585D-01 DE=-5.31D-01 F= -3.84D-01
     ILin= 5 X=8.000D-01 Y= 1.082864895264D-01 DE=-5.77D-01 F= -9.01D-02
     Note:  rotation exceeds Pi/2.
     ILin= 6 X=1.200D+00 Y= 1.425437151779D-01 DE=-5.42D-01 F=  1.94D-01
     An  expanding polynomial of degree  6 produced  0.8776
     Minimum is close to point  5 DX=  7.76D-02 DF= -3.35D-03 DXR=  8.84D-02 DFR=  5.80D-03 which will be used.
 Iteration   2 EE= 0.108286489526392     Delta-E=       -0.576710554348 Grad=2.915D-01 Max rot=    4.7281 deg.
 Gradient too large for Newton-Raphson -- use scaled steepest descent instead.
 Alpha Gap=     0.254 HL deriv= 3.25D-01
  Beta Gap=     0.297 HL deriv= 5.68D-02
     ILin= 1 X=0.000D+00 Y= 1.082864895264D-01 DE= 0.00D+00 F= -2.53D-01
     ILin= 2 X=5.000D-01 Y= 1.667516488396D-03 DE=-1.07D-01 F= -1.71D-01
     ILin= 3 X=7.000D-01 Y=-2.894656990884D-02 DE=-1.37D-01 F= -1.35D-01
     ILin= 4 X=1.000D+00 Y=-6.087647806919D-02 DE=-1.69D-01 F= -7.76D-02
     ILin= 5 X=1.500D+00 Y=-7.476160247296D-02 DE=-1.83D-01 F=  2.27D-02
     Accept linear search using points  4 and  5.
     An  expanding polynomial of degree  5 produced  1.2904
 Iteration   3 EE=-0.750609202126498E-01 Delta-E=       -0.183347409739 Grad=8.755D-02 Max rot=    1.5490 deg.
 Gradient too large for Newton-Raphson -- use scaled steepest descent instead.
 Alpha Gap=     0.343 HL deriv= 2.61D-02
  Beta Gap=     0.323 HL deriv= 8.38D-02
     ILin= 1 X=0.000D+00 Y=-7.506092021265D-02 DE= 0.00D+00 F= -2.55D-02
     ILin= 2 X=1.100D+00 Y=-9.602572879726D-02 DE=-2.10D-02 F= -1.24D-02
     Reject lnstep minimum 1.501D+00 FVal=-9.845786766870D-02 Lims=  0.00D+00  1.10D+00
     ILin= 3 X=1.700D+00 Y=-1.012387136266D-01 DE=-2.62D-02 F= -4.88D-03
     ILin= 4 X=2.800D+00 Y=-9.868833342597D-02 DE=-2.36D-02 F=  9.65D-03
     An  expanding polynomial of degree  4 produced  2.0773
 Iteration   4 EE=-0.102160719005497     Delta-E=       -0.027099798793 Grad=6.606D-02 Max rot=    1.3664 deg.
 Gradient too large for Newton-Raphson -- use scaled steepest descent instead.
 Alpha Gap=     0.384 HL deriv= 1.90D-02
  Beta Gap=     0.346 HL deriv= 6.89D-02
     ILin= 1 X=0.000D+00 Y=-1.021607190055D-01 DE= 0.00D+00 F= -1.37D-02
     ILin= 2 X=1.600D+00 Y=-1.120812001617D-01 DE=-9.92D-03 F=  1.42D-03
     Accept linear search using points  1 and  2.
     An  expanding polynomial of degree  2 produced  1.5480
     Minimum is close to point  2 DX= -5.20D-02 DF= -2.29D-05 DXR=  3.36D-02 DFR=  2.31D-03 which will be used.
 Iteration   5 EE=-0.112081200161697     Delta-E=       -0.009920481156 Grad=5.225D-02 Max rot=    1.1832 deg.
 Gradient too large for Newton-Raphson -- use scaled steepest descent instead.
 Alpha Gap=     0.382 HL deriv= 6.69D-03
  Beta Gap=     0.358 HL deriv= 5.77D-02
     ILin= 1 X=0.000D+00 Y=-1.120812001617D-01 DE= 0.00D+00 F= -8.78D-03
     ILin= 2 X=1.800D+00 Y=-1.167496993592D-01 DE=-4.67D-03 F=  3.67D-03
     Accept linear search using points  1 and  2.
     An  expanding polynomial of degree  2 produced  1.5320
 Iteration   6 EE=-0.117481752023650     Delta-E=       -0.005400551862 Grad=4.524D-02 Max rot=    1.1191 deg.
 Gradient too large for Newton-Raphson -- use scaled steepest descent instead.
 Alpha Gap=     0.393 HL deriv= 2.52D-03
  Beta Gap=     0.365 HL deriv= 4.33D-02
     ILin= 1 X=0.000D+00 Y=-1.174817520237D-01 DE= 0.00D+00 F= -6.30D-03
     ILin= 2 X=1.500D+00 Y=-1.205334191573D-01 DE=-3.05D-03 F=  2.25D-03
     Accept linear search using points  1 and  2.
     An  expanding polynomial of degree  2 produced  1.2621
 Iteration   7 EE=-0.120906444403602     Delta-E=       -0.003424692380 Grad=2.987D-02 Max rot=    0.7352 deg.
 Gradient too large for Newton-Raphson -- use scaled steepest descent instead.
 Alpha Gap=     0.394 HL deriv= 3.82D-04
  Beta Gap=     0.369 HL deriv= 3.48D-02
     ILin= 1 X=0.000D+00 Y=-1.209064444036D-01 DE= 0.00D+00 F= -2.96D-03
     ILin= 2 X=1.400D+00 Y=-1.227549910972D-01 DE=-1.85D-03 F=  3.31D-04
     Accept linear search using points  1 and  2.
     An  expanding polynomial of degree  2 produced  1.3320
     Minimum is close to point  2 DX= -6.80D-02 DF= -7.96D-06 DXR=  5.11D-02 DFR=  4.31D-03 which will be used.
 Iteration   8 EE=-0.122754991097168     Delta-E=       -0.001848546694 Grad=2.431D-02 Max rot=    0.6102 deg.
 Gradient too large for Newton-Raphson -- use scaled steepest descent instead.
 Alpha Gap=     0.397 HL deriv= 3.88D-04
  Beta Gap=     0.371 HL deriv= 2.64D-02
     ILin= 1 X=0.000D+00 Y=-1.227549910972D-01 DE= 0.00D+00 F= -1.91D-03
     ILin= 2 X=1.300D+00 Y=-1.238692892127D-01 DE=-1.11D-03 F=  2.03D-04
     Accept linear search using points  1 and  2.
     An  expanding polynomial of degree  2 produced  1.2296
     Minimum is close to point  2 DX= -7.04D-02 DF= -5.44D-06 DXR=  5.72D-02 DFR=  4.88D-03 which will be used.
 Iteration   9 EE=-0.123869289212678     Delta-E=       -0.001114298116 Grad=1.781D-02 Max rot=    0.4372 deg.
 Gradient too large for Newton-Raphson -- use scaled steepest descent instead.
 Alpha Gap=     0.398 HL deriv= 1.40D-05
  Beta Gap=     0.372 HL deriv= 2.03D-02
     ILin= 1 X=0.000D+00 Y=-1.238692892127D-01 DE= 0.00D+00 F= -1.05D-03
     ILin= 2 X=1.300D+00 Y=-1.245188825490D-01 DE=-6.50D-04 F=  5.29D-05
     Accept linear search using points  1 and  2.
     An  expanding polynomial of degree  2 produced  1.2673
     Minimum is close to point  2 DX= -3.27D-02 DF= -6.61D-07 DXR=  2.58D-02 DFR=  1.02D-03 which will be used.
 Iteration  10 EE=-0.124518882548955     Delta-E=       -0.000649593336 Grad=1.317D-02 Max rot=    0.3322 deg.
 Gradient too large for Newton-Raphson -- use scaled steepest descent instead.
 Alpha Gap=     0.399 HL deriv= 1.02D-04
  Beta Gap=     0.373 HL deriv= 1.55D-02
     ILin= 1 X=0.000D+00 Y=-1.245188825490D-01 DE= 0.00D+00 F= -5.85D-04
     ILin= 2 X=1.200D+00 Y=-1.248974206145D-01 DE=-3.79D-04 F= -4.59D-05
     Reject lnstep minimum 1.256D+00 FVal=-1.248984962226D-01 Lims=  0.00D+00  1.20D+00
     ILin= 3 X=2.500D+00 Y=-1.245768301411D-01 DE=-5.79D-05 F=  5.39D-04
     An  expanding polynomial of degree  3 produced  1.3015
     Minimum is close to point  2 DX=  1.02D-01 DF= -2.32D-06 DXR=  7.80D-02 DFR=  6.12D-03 which will be used.
 Iteration  11 EE=-0.124897420614502     Delta-E=       -0.000378538066 Grad=8.821D-03 Max rot=    0.2591 deg.
 QCNR:  CnvC1=3.85D-09 CnvC2=3.85D-08
 LinEq1:  Iter=  0 NonCon=     1 RMS=4.57D-04 Max=1.20D-02 NDo=     1
 AX will form     1 AO Fock derivatives at one time.
 LinEq1:  Iter=  1 NonCon=     1 RMS=1.05D-04 Max=2.74D-03 NDo=     1
 LinEq1:  Iter=  2 NonCon=     1 RMS=1.08D-05 Max=2.40D-04 NDo=     1
 LinEq1:  Iter=  3 NonCon=     1 RMS=2.51D-06 Max=3.56D-05 NDo=     1
 LinEq1:  Iter=  4 NonCon=     1 RMS=7.28D-07 Max=1.65D-05 NDo=     1
 LinEq1:  Iter=  5 NonCon=     1 RMS=1.56D-07 Max=1.50D-06 NDo=     1
 LinEq1:  Iter=  6 NonCon=     1 RMS=2.86D-08 Max=3.41D-07 NDo=     1
 LinEq1:  Iter=  7 NonCon=     1 RMS=5.34D-09 Max=6.26D-08 NDo=     1
 LinEq1:  Iter=  8 NonCon=     0 RMS=8.76D-10 Max=1.09D-08 NDo=     1
 Linear equations converged to 3.847D-09 3.847D-08 after     8 iterations.
 Angle between quadratic step and gradient=  42.85 degrees.
     ILin= 1 X=0.000D+00 Y=-1.248974206145D-01 DE= 0.00D+00 F= -1.16D-03
     ILin= 2 X=1.000D+00 Y=-1.254689094463D-01 DE=-5.71D-04 F=  3.05D-05
     Accept linear search using points  1 and  2.
     An  expanding polynomial of degree  2 produced  0.9750
     Minimum is close to point  2 DX= -2.50D-02 DF= -3.81D-07 DXR=  2.56D-02 DFR=  6.67D-04 which will be used.
 Iteration  12 EE=-0.125468909446340     Delta-E=       -0.000571488832 Grad=4.200D-04 Max rot=    0.0081 deg.
 QCNR:  CnvC1=3.85D-09 CnvC2=3.85D-08
 LinEq1:  Iter=  0 NonCon=     1 RMS=2.10D-05 Max=3.71D-04 NDo=     1
 LinEq1:  Iter=  1 NonCon=     1 RMS=3.68D-06 Max=3.29D-05 NDo=     1
 LinEq1:  Iter=  2 NonCon=     1 RMS=8.83D-07 Max=1.08D-05 NDo=     1
 LinEq1:  Iter=  3 NonCon=     1 RMS=2.31D-07 Max=4.22D-06 NDo=     1
 LinEq1:  Iter=  4 NonCon=     1 RMS=6.62D-08 Max=8.75D-07 NDo=     1
 LinEq1:  Iter=  5 NonCon=     1 RMS=1.39D-08 Max=1.65D-07 NDo=     1
 LinEq1:  Iter=  6 NonCon=     0 RMS=2.28D-09 Max=2.50D-08 NDo=     1
 Linear equations converged to 3.847D-09 3.847D-08 after     6 iterations.
 Angle between quadratic step and gradient=  38.88 degrees.
     ILin= 1 X=0.000D+00 Y=-1.254689094463D-01 DE= 0.00D+00 F= -2.23D-06
     ILin= 2 X=1.000D+00 Y=-1.254700284657D-01 DE=-1.12D-06 F= -5.64D-09
     Reject lnstep minimum 1.003D+00 FVal=-1.254700284728D-01 Lims=  0.00D+00  1.00D+00
     ILin= 3 X=2.000D+00 Y=-1.254689234879D-01 DE=-1.40D-08 F=  2.21D-06
     An  expanding polynomial of degree  3 produced  1.0032
     Minimum is close to point  2 DX=  3.16D-03 DF= -1.11D-11 DXR=  3.15D-03 DFR=  9.90D-06 which will be used.
 Iteration  13 EE=-0.125470028465657     Delta-E=       -0.000001119019 Grad=7.058D-06 Max rot=    0.0002 deg.
 QCNR:  CnvC1=7.06D-11 CnvC2=7.06D-10
 LinEq1:  Iter=  0 NonCon=     1 RMS=2.60D-07 Max=2.60D-06 NDo=     1
 LinEq1:  Iter=  1 NonCon=     1 RMS=6.79D-08 Max=1.09D-06 NDo=     1
 LinEq1:  Iter=  2 NonCon=     1 RMS=1.55D-08 Max=2.25D-07 NDo=     1
 LinEq1:  Iter=  3 NonCon=     1 RMS=4.08D-09 Max=4.54D-08 NDo=     1
 LinEq1:  Iter=  4 NonCon=     1 RMS=9.45D-10 Max=1.15D-08 NDo=     1
 LinEq1:  Iter=  5 NonCon=     1 RMS=2.48D-10 Max=3.71D-09 NDo=     1
 LinEq1:  Iter=  6 NonCon=     1 RMS=5.35D-11 Max=9.23D-10 NDo=     1
 LinEq1:  Iter=  7 NonCon=     0 RMS=8.83D-12 Max=9.37D-11 NDo=     1
 Linear equations converged to 7.058D-11 7.058D-10 after     7 iterations.
 Angle between quadratic step and gradient=  51.07 degrees.
     ILin= 1 X=0.000D+00 Y=-1.254700284657D-01 DE= 0.00D+00 F= -2.93D-10
     ILin= 2 X=1.000D+00 Y=-1.254700286107D-01 DE=-1.45D-10
 Iteration  14 EE=-0.125470028610664     Delta-E=       -0.000000000145 Grad=5.627D-08 Max rot=    0.0000 deg.
 Rotation gradient small -- convergence achieved.
 SCF Done:  E(UPM6) = -0.125470028611     a.u. after   14 cycles
            Convg  =    0.5627D-07                    50 Fock formations.
              S**2 =  0.7864                  -V/T =  0.9966
 <Sx>= 0.0000 <Sy>= 0.0000 <Sz>= 0.5000 <S**2>= 0.7864 S= 0.5180
 <L.S>= 0.000000000000E+00
 Annihilation of the first spin contaminant:
 S**2 before annihilation     0.7864,   after     0.7501
 Leave Link  508 at Thu Feb  4 08:41:11 2021, MaxMem=    33554432 cpu:         0.2
 (Enter /apps/applications/gaussian/G09.D01/2/default/g09/l801.exe)
 Range of M.O.s used for correlation:     1    55
 NBasis=    55 NAE=    32 NBE=    31 NFC=     0 NFV=     0
 NROrb=     55 NOA=    32 NOB=    31 NVA=    23 NVB=    24
 Leave Link  801 at Thu Feb  4 08:41:11 2021, MaxMem=    33554432 cpu:         0.1
 (Enter /apps/applications/gaussian/G09.D01/2/default/g09/l1101.exe)
 Using compressed storage, NAtomX=    22.
 Will process     23 centers per pass.
 Leave Link 1101 at Thu Feb  4 08:41:11 2021, MaxMem=    33554432 cpu:         0.1
 (Enter /apps/applications/gaussian/G09.D01/2/default/g09/l1102.exe)
 Symmetrizing basis deriv contribution to polar:
 IMax=3 JMax=2 DiffMx= 0.00D+00
 Leave Link 1102 at Thu Feb  4 08:41:11 2021, MaxMem=    33554432 cpu:         0.0
 (Enter /apps/applications/gaussian/G09.D01/2/default/g09/l1110.exe)
 Forming Gx(P) for the SCF density, NAtomX=    22.
 Integral derivatives from FoFJK, PRISM(SPDF).
 Do as many integral derivatives as possible in FoFJK.
 G2DrvN: MDV=      33495261.
 G2DrvN: will do    23 centers at a time, making    1 passes.
 Calling FoFCou, ICntrl=  3107 FMM=F I1Cent=   0 AccDes= 0.00D+00.
 FoFJK:  IHMeth=40 ICntrl=    3107 DoSepK=F KAlg= 0 I1Cent=   0 FoldK=F
 IRaf=         0 NMat=   1 IRICut=       1 DoRegI=T DoRafI=F ISym2E= 0.
 FoFCou: FMM=F IPFlag=           0 FMFlag=      100000 FMFlg1=           0
         NFxFlg=           0 DoJE=F BraDBF=F KetDBF=F FulRan=T
         wScrn=  0.000000 ICntrl=    3107 IOpCl=  1 I1Cent=           0 NGrid=           0
         NMat0=    1 NMatS0=      1 NMatT0=    0 NMatD0=    1 NMtDS0=    0 NMtDT0=    0
 Symmetry not used in FoFCou.
 End of G2Drv F.D. properties file   721 does not exist.
 End of G2Drv F.D. properties file   722 does not exist.
 End of G2Drv F.D. properties file   788 does not exist.
 Leave Link 1110 at Thu Feb  4 08:41:12 2021, MaxMem=    33554432 cpu:         0.1
 (Enter /apps/applications/gaussian/G09.D01/2/default/g09/l1002.exe)
 Minotr:  UHF open shell wavefunction.
          IDoAtm=1111111111111111111111
          Direct CPHF calculation.
          Differentiating once with respect to electric field.
                with respect to dipole field.
          Differentiating once with respect to nuclear coordinates.
          Electric field/nuclear overlap derivatives assumed to be zero.
          Requested convergence is 1.0D-08 RMS, and 1.0D-07 maximum.
          NewPWx=T KeepS1=F KeepF1=F KeepIn=T MapXYZ=F SortEE=F KeepMc=T.
          MDV=      33495207 using IRadAn=       2.
 Keep J ints in memory in canonical form, NReq=889842.
 FoFCou: FMM=F IPFlag=           0 FMFlag=           0 FMFlg1=           0
         NFxFlg=           0 DoJE=F BraDBF=F KetDBF=F FulRan=T
         wScrn=  0.000000 ICntrl=     600 IOpCl=  2 I1Cent=           0 NGrid=           0
         NMat0=    1 NMatS0=    121 NMatT0=    0 NMatD0=    1 NMtDS0=    0 NMtDT0=    0
 Symmetry not used in FoFCou.
          Solving linear equations separately, MaxMat=       0.
          There are    69 degrees of freedom in the 1st order CPHF.  IDoFFX=5 NUNeed=    69.
 LinEq1:  Iter=  0 NonCon=    69 RMS=2.03D-01 Max=1.98D+00 NDo=    69
 AX will form    69 AO Fock derivatives at one time.
 LinEq1:  Iter=  1 NonCon=    69 RMS=3.29D-02 Max=3.47D-01 NDo=    69
 LinEq1:  Iter=  2 NonCon=    69 RMS=6.39D-03 Max=1.06D-01 NDo=    69
 LinEq1:  Iter=  3 NonCon=    69 RMS=1.41D-03 Max=1.92D-02 NDo=    69
 LinEq1:  Iter=  4 NonCon=    69 RMS=3.77D-04 Max=5.33D-03 NDo=    69
 LinEq1:  Iter=  5 NonCon=    69 RMS=9.26D-05 Max=1.12D-03 NDo=    69
 LinEq1:  Iter=  6 NonCon=    69 RMS=2.08D-05 Max=2.45D-04 NDo=    69
 LinEq1:  Iter=  7 NonCon=    60 RMS=4.13D-06 Max=5.93D-05 NDo=    69
 LinEq1:  Iter=  8 NonCon=    30 RMS=7.62D-07 Max=8.62D-06 NDo=    69
 LinEq1:  Iter=  9 NonCon=     9 RMS=1.37D-07 Max=1.44D-06 NDo=    69
 LinEq1:  Iter= 10 NonCon=     3 RMS=2.18D-08 Max=1.75D-07 NDo=    69
 LinEq1:  Iter= 11 NonCon=     0 RMS=3.54D-09 Max=4.13D-08 NDo=    69
 Linear equations converged to 1.000D-08 1.000D-07 after    11 iterations.
 FullF1:  Do perturbations    1 to     3.
 Isotropic polarizability for W=    0.000000       68.46 Bohr**3.
 End of Minotr F.D. properties file   721 does not exist.
 End of Minotr F.D. properties file   722 does not exist.
 End of Minotr F.D. properties file   788 does not exist.
 Leave Link 1002 at Thu Feb  4 08:41:12 2021, MaxMem=    33554432 cpu:         0.6
 (Enter /apps/applications/gaussian/G09.D01/2/default/g09/l601.exe)
 Copying SCF densities to generalized density rwf, IOpCl= 1 IROHF=0.

 **********************************************************************

            Population analysis using the SCF density.

 **********************************************************************

 Alpha  occ. eigenvalues --   -1.28014  -1.18191  -1.17117  -1.12948  -1.05880
 Alpha  occ. eigenvalues --   -1.00808  -0.97055  -0.87986  -0.80320  -0.74998
 Alpha  occ. eigenvalues --   -0.73513  -0.68641  -0.67044  -0.66190  -0.62788
 Alpha  occ. eigenvalues --   -0.60065  -0.58566  -0.57408  -0.56405  -0.55157
 Alpha  occ. eigenvalues --   -0.51814  -0.51335  -0.50773  -0.49878  -0.48494
 Alpha  occ. eigenvalues --   -0.46877  -0.45344  -0.43393  -0.40698  -0.39466
 Alpha  occ. eigenvalues --   -0.37557  -0.37163
 Alpha virt. eigenvalues --   -0.01429   0.01437   0.02540   0.09190   0.09847
 Alpha virt. eigenvalues --    0.11356   0.11935   0.13188   0.14384   0.14946
 Alpha virt. eigenvalues --    0.16117   0.16257   0.17846   0.17907   0.18223
 Alpha virt. eigenvalues --    0.18509   0.18789   0.19638   0.21008   0.21309
 Alpha virt. eigenvalues --    0.22141   0.22488   0.23446
  Beta  occ. eigenvalues --   -1.20464  -1.18280  -1.17117  -1.07151  -1.04192
  Beta  occ. eigenvalues --   -0.99038  -0.96800  -0.87527  -0.80123  -0.73592
  Beta  occ. eigenvalues --   -0.73291  -0.66704  -0.62958  -0.62880  -0.62074
  Beta  occ. eigenvalues --   -0.58064  -0.57325  -0.56469  -0.55153  -0.54734
  Beta  occ. eigenvalues --   -0.51683  -0.50970  -0.50597  -0.49864  -0.48210
  Beta  occ. eigenvalues --   -0.46729  -0.45211  -0.43312  -0.38826  -0.37216
  Beta  occ. eigenvalues --   -0.35818
  Beta virt. eigenvalues --   -0.00322   0.00241   0.01437   0.03970   0.09276
  Beta virt. eigenvalues --    0.11242   0.11783   0.12735   0.13216   0.14634
  Beta virt. eigenvalues --    0.14912   0.16102   0.16256   0.17845   0.17910
  Beta virt. eigenvalues --    0.18208   0.18502   0.18777   0.19628   0.20998
  Beta virt. eigenvalues --    0.21302   0.22146   0.22486   0.23437
          Condensed to atoms (all electrons):
               1          2          3          4          5          6
     1  O    6.456256   0.000000   0.000000   0.000000   0.000000   0.000000
     2  C    0.000000   3.590422   0.000000   0.000000   0.000000   0.000000
     3  C    0.000000   0.000000   4.446888   0.000000   0.000000   0.000000
     4  C    0.000000   0.000000   0.000000   4.204891   0.000000   0.000000
     5  C    0.000000   0.000000   0.000000   0.000000   4.277138   0.000000
     6  C    0.000000   0.000000   0.000000   0.000000   0.000000   4.269105
     7  H    0.000000   0.000000   0.000000   0.000000   0.000000   0.000000
     8  C    0.000000   0.000000   0.000000   0.000000   0.000000   0.000000
     9  O    0.000000   0.000000   0.000000   0.000000   0.000000   0.000000
    10  C    0.000000   0.000000   0.000000   0.000000   0.000000   0.000000
    11  H    0.000000   0.000000   0.000000   0.000000   0.000000   0.000000
    12  H    0.000000   0.000000   0.000000   0.000000   0.000000   0.000000
    13  H    0.000000   0.000000   0.000000   0.000000   0.000000   0.000000
    14  H    0.000000   0.000000   0.000000   0.000000   0.000000   0.000000
    15  H    0.000000   0.000000   0.000000   0.000000   0.000000   0.000000
    16  H    0.000000   0.000000   0.000000   0.000000   0.000000   0.000000
    17  H    0.000000   0.000000   0.000000   0.000000   0.000000   0.000000
    18  H    0.000000   0.000000   0.000000   0.000000   0.000000   0.000000
    19  H    0.000000   0.000000   0.000000   0.000000   0.000000   0.000000
    20  H    0.000000   0.000000   0.000000   0.000000   0.000000   0.000000
    21  O    0.000000   0.000000   0.000000   0.000000   0.000000   0.000000
    22  O    0.000000   0.000000   0.000000   0.000000   0.000000   0.000000
               7          8          9         10         11         12
     1  O    0.000000   0.000000   0.000000   0.000000   0.000000   0.000000
     2  C    0.000000   0.000000   0.000000   0.000000   0.000000   0.000000
     3  C    0.000000   0.000000   0.000000   0.000000   0.000000   0.000000
     4  C    0.000000   0.000000   0.000000   0.000000   0.000000   0.000000
     5  C    0.000000   0.000000   0.000000   0.000000   0.000000   0.000000
     6  C    0.000000   0.000000   0.000000   0.000000   0.000000   0.000000
     7  H    0.831750   0.000000   0.000000   0.000000   0.000000   0.000000
     8  C    0.000000   3.431329   0.000000   0.000000   0.000000   0.000000
     9  O    0.000000   0.000000   6.463718   0.000000   0.000000   0.000000
    10  C    0.000000   0.000000   0.000000   4.643531   0.000000   0.000000
    11  H    0.000000   0.000000   0.000000   0.000000   0.914066   0.000000
    12  H    0.000000   0.000000   0.000000   0.000000   0.000000   0.816318
    13  H    0.000000   0.000000   0.000000   0.000000   0.000000   0.000000
    14  H    0.000000   0.000000   0.000000   0.000000   0.000000   0.000000
    15  H    0.000000   0.000000   0.000000   0.000000   0.000000   0.000000
    16  H    0.000000   0.000000   0.000000   0.000000   0.000000   0.000000
    17  H    0.000000   0.000000   0.000000   0.000000   0.000000   0.000000
    18  H    0.000000   0.000000   0.000000   0.000000   0.000000   0.000000
    19  H    0.000000   0.000000   0.000000   0.000000   0.000000   0.000000
    20  H    0.000000   0.000000   0.000000   0.000000   0.000000   0.000000
    21  O    0.000000   0.000000   0.000000   0.000000   0.000000   0.000000
    22  O    0.000000   0.000000   0.000000   0.000000   0.000000   0.000000
              13         14         15         16         17         18
     1  O    0.000000   0.000000   0.000000   0.000000   0.000000   0.000000
     2  C    0.000000   0.000000   0.000000   0.000000   0.000000   0.000000
     3  C    0.000000   0.000000   0.000000   0.000000   0.000000   0.000000
     4  C    0.000000   0.000000   0.000000   0.000000   0.000000   0.000000
     5  C    0.000000   0.000000   0.000000   0.000000   0.000000   0.000000
     6  C    0.000000   0.000000   0.000000   0.000000   0.000000   0.000000
     7  H    0.000000   0.000000   0.000000   0.000000   0.000000   0.000000
     8  C    0.000000   0.000000   0.000000   0.000000   0.000000   0.000000
     9  O    0.000000   0.000000   0.000000   0.000000   0.000000   0.000000
    10  C    0.000000   0.000000   0.000000   0.000000   0.000000   0.000000
    11  H    0.000000   0.000000   0.000000   0.000000   0.000000   0.000000
    12  H    0.000000   0.000000   0.000000   0.000000   0.000000   0.000000
    13  H    0.830611   0.000000   0.000000   0.000000   0.000000   0.000000
    14  H    0.000000   0.874165   0.000000   0.000000   0.000000   0.000000
    15  H    0.000000   0.000000   0.853845   0.000000   0.000000   0.000000
    16  H    0.000000   0.000000   0.000000   0.821096   0.000000   0.000000
    17  H    0.000000   0.000000   0.000000   0.000000   0.832092   0.000000
    18  H    0.000000   0.000000   0.000000   0.000000   0.000000   0.811423
    19  H    0.000000   0.000000   0.000000   0.000000   0.000000   0.000000
    20  H    0.000000   0.000000   0.000000   0.000000   0.000000   0.000000
    21  O    0.000000   0.000000   0.000000   0.000000   0.000000   0.000000
    22  O    0.000000   0.000000   0.000000   0.000000   0.000000   0.000000
              19         20         21         22
     1  O    0.000000   0.000000   0.000000   0.000000
     2  C    0.000000   0.000000   0.000000   0.000000
     3  C    0.000000   0.000000   0.000000   0.000000
     4  C    0.000000   0.000000   0.000000   0.000000
     5  C    0.000000   0.000000   0.000000   0.000000
     6  C    0.000000   0.000000   0.000000   0.000000
     7  H    0.000000   0.000000   0.000000   0.000000
     8  C    0.000000   0.000000   0.000000   0.000000
     9  O    0.000000   0.000000   0.000000   0.000000
    10  C    0.000000   0.000000   0.000000   0.000000
    11  H    0.000000   0.000000   0.000000   0.000000
    12  H    0.000000   0.000000   0.000000   0.000000
    13  H    0.000000   0.000000   0.000000   0.000000
    14  H    0.000000   0.000000   0.000000   0.000000
    15  H    0.000000   0.000000   0.000000   0.000000
    16  H    0.000000   0.000000   0.000000   0.000000
    17  H    0.000000   0.000000   0.000000   0.000000
    18  H    0.000000   0.000000   0.000000   0.000000
    19  H    0.798881   0.000000   0.000000   0.000000
    20  H    0.000000   0.798872   0.000000   0.000000
    21  O    0.000000   0.000000   6.180310   0.000000
    22  O    0.000000   0.000000   0.000000   5.853295
          Atomic-Atomic Spin Densities.
               1          2          3          4          5          6
     1  O   -0.000001   0.000000   0.000000   0.000000   0.000000   0.000000
     2  C    0.000000  -0.000010   0.000000   0.000000   0.000000   0.000000
     3  C    0.000000   0.000000   0.000071   0.000000   0.000000   0.000000
     4  C    0.000000   0.000000   0.000000  -0.003013   0.000000   0.000000
     5  C    0.000000   0.000000   0.000000   0.000000   0.007942   0.000000
     6  C    0.000000   0.000000   0.000000   0.000000   0.000000  -0.168027
     7  H    0.000000   0.000000   0.000000   0.000000   0.000000   0.000000
     8  C    0.000000   0.000000   0.000000   0.000000   0.000000   0.000000
     9  O    0.000000   0.000000   0.000000   0.000000   0.000000   0.000000
    10  C    0.000000   0.000000   0.000000   0.000000   0.000000   0.000000
    11  H    0.000000   0.000000   0.000000   0.000000   0.000000   0.000000
    12  H    0.000000   0.000000   0.000000   0.000000   0.000000   0.000000
    13  H    0.000000   0.000000   0.000000   0.000000   0.000000   0.000000
    14  H    0.000000   0.000000   0.000000   0.000000   0.000000   0.000000
    15  H    0.000000   0.000000   0.000000   0.000000   0.000000   0.000000
    16  H    0.000000   0.000000   0.000000   0.000000   0.000000   0.000000
    17  H    0.000000   0.000000   0.000000   0.000000   0.000000   0.000000
    18  H    0.000000   0.000000   0.000000   0.000000   0.000000   0.000000
    19  H    0.000000   0.000000   0.000000   0.000000   0.000000   0.000000
    20  H    0.000000   0.000000   0.000000   0.000000   0.000000   0.000000
    21  O    0.000000   0.000000   0.000000   0.000000   0.000000   0.000000
    22  O    0.000000   0.000000   0.000000   0.000000   0.000000   0.000000
               7          8          9         10         11         12
     1  O    0.000000   0.000000   0.000000   0.000000   0.000000   0.000000
     2  C    0.000000   0.000000   0.000000   0.000000   0.000000   0.000000
     3  C    0.000000   0.000000   0.000000   0.000000   0.000000   0.000000
     4  C    0.000000   0.000000   0.000000   0.000000   0.000000   0.000000
     5  C    0.000000   0.000000   0.000000   0.000000   0.000000   0.000000
     6  C    0.000000   0.000000   0.000000   0.000000   0.000000   0.000000
     7  H    0.009181   0.000000   0.000000   0.000000   0.000000   0.000000
     8  C    0.000000   0.019224   0.000000   0.000000   0.000000   0.000000
     9  O    0.000000   0.000000  -0.010747   0.000000   0.000000   0.000000
    10  C    0.000000   0.000000   0.000000   0.001678   0.000000   0.000000
    11  H    0.000000   0.000000   0.000000   0.000000   0.000001   0.000000
    12  H    0.000000   0.000000   0.000000   0.000000   0.000000  -0.000018
    13  H    0.000000   0.000000   0.000000   0.000000   0.000000   0.000000
    14  H    0.000000   0.000000   0.000000   0.000000   0.000000   0.000000
    15  H    0.000000   0.000000   0.000000   0.000000   0.000000   0.000000
    16  H    0.000000   0.000000   0.000000   0.000000   0.000000   0.000000
    17  H    0.000000   0.000000   0.000000   0.000000   0.000000   0.000000
    18  H    0.000000   0.000000   0.000000   0.000000   0.000000   0.000000
    19  H    0.000000   0.000000   0.000000   0.000000   0.000000   0.000000
    20  H    0.000000   0.000000   0.000000   0.000000   0.000000   0.000000
    21  O    0.000000   0.000000   0.000000   0.000000   0.000000   0.000000
    22  O    0.000000   0.000000   0.000000   0.000000   0.000000   0.000000
              13         14         15         16         17         18
     1  O    0.000000   0.000000   0.000000   0.000000   0.000000   0.000000
     2  C    0.000000   0.000000   0.000000   0.000000   0.000000   0.000000
     3  C    0.000000   0.000000   0.000000   0.000000   0.000000   0.000000
     4  C    0.000000   0.000000   0.000000   0.000000   0.000000   0.000000
     5  C    0.000000   0.000000   0.000000   0.000000   0.000000   0.000000
     6  C    0.000000   0.000000   0.000000   0.000000   0.000000   0.000000
     7  H    0.000000   0.000000   0.000000   0.000000   0.000000   0.000000
     8  C    0.000000   0.000000   0.000000   0.000000   0.000000   0.000000
     9  O    0.000000   0.000000   0.000000   0.000000   0.000000   0.000000
    10  C    0.000000   0.000000   0.000000   0.000000   0.000000   0.000000
    11  H    0.000000   0.000000   0.000000   0.000000   0.000000   0.000000
    12  H    0.000000   0.000000   0.000000   0.000000   0.000000   0.000000
    13  H   -0.000055   0.000000   0.000000   0.000000   0.000000   0.000000
    14  H    0.000000   0.000214   0.000000   0.000000   0.000000   0.000000
    15  H    0.000000   0.000000   0.000131   0.000000   0.000000   0.000000
    16  H    0.000000   0.000000   0.000000  -0.003231   0.000000   0.000000
    17  H    0.000000   0.000000   0.000000   0.000000  -0.000882   0.000000
    18  H    0.000000   0.000000   0.000000   0.000000   0.000000   0.000013
    19  H    0.000000   0.000000   0.000000   0.000000   0.000000   0.000000
    20  H    0.000000   0.000000   0.000000   0.000000   0.000000   0.000000
    21  O    0.000000   0.000000   0.000000   0.000000   0.000000   0.000000
    22  O    0.000000   0.000000   0.000000   0.000000   0.000000   0.000000
              19         20         21         22
     1  O    0.000000   0.000000   0.000000   0.000000
     2  C    0.000000   0.000000   0.000000   0.000000
     3  C    0.000000   0.000000   0.000000   0.000000
     4  C    0.000000   0.000000   0.000000   0.000000
     5  C    0.000000   0.000000   0.000000   0.000000
     6  C    0.000000   0.000000   0.000000   0.000000
     7  H    0.000000   0.000000   0.000000   0.000000
     8  C    0.000000   0.000000   0.000000   0.000000
     9  O    0.000000   0.000000   0.000000   0.000000
    10  C    0.000000   0.000000   0.000000   0.000000
    11  H    0.000000   0.000000   0.000000   0.000000
    12  H    0.000000   0.000000   0.000000   0.000000
    13  H    0.000000   0.000000   0.000000   0.000000
    14  H    0.000000   0.000000   0.000000   0.000000
    15  H    0.000000   0.000000   0.000000   0.000000
    16  H    0.000000   0.000000   0.000000   0.000000
    17  H    0.000000   0.000000   0.000000   0.000000
    18  H    0.000000   0.000000   0.000000   0.000000
    19  H   -0.000050   0.000000   0.000000   0.000000
    20  H    0.000000   0.000104   0.000000   0.000000
    21  O    0.000000   0.000000   0.664091   0.000000
    22  O    0.000000   0.000000   0.000000   0.483386
 Mulliken charges and spin densities:
               1          2
     1  O   -0.456256  -0.000001
     2  C    0.409578  -0.000010
     3  C   -0.446888   0.000071
     4  C   -0.204891  -0.003013
     5  C   -0.277138   0.007942
     6  C   -0.269105  -0.168027
     7  H    0.168250   0.009181
     8  C    0.568671   0.019224
     9  O   -0.463718  -0.010747
    10  C   -0.643531   0.001678
    11  H    0.085934   0.000001
    12  H    0.183682  -0.000018
    13  H    0.169389  -0.000055
    14  H    0.125835   0.000214
    15  H    0.146155   0.000131
    16  H    0.178904  -0.003231
    17  H    0.167908  -0.000882
    18  H    0.188577   0.000013
    19  H    0.201119  -0.000050
    20  H    0.201128   0.000104
    21  O   -0.180310   0.664091
    22  O    0.146705   0.483386
 Sum of Mulliken charges =   0.00000   1.00000
 Mulliken charges and spin densities with hydrogens summed into heavy atoms:
               1          2
     1  O   -0.456256  -0.000001
     2  C    0.495512  -0.000009
     3  C   -0.093816  -0.000003
     4  C    0.067099  -0.002668
     5  C    0.069675   0.003829
     6  C   -0.100855  -0.158846
     8  C    0.568671   0.019224
     9  O   -0.463718  -0.010747
    10  C   -0.052707   0.001745
    21  O   -0.180310   0.664091
    22  O    0.146705   0.483386
 APT charges:
               1
     1  O   -0.666667
     2  C    0.864892
     3  C   -0.676445
     4  C   -0.133715
     5  C   -0.282395
     6  C   -0.496825
     7  H    0.134611
     8  C    1.237736
     9  O   -0.761069
    10  C   -0.994378
    11  H    0.006777
    12  H    0.203010
    13  H    0.187813
    14  H    0.109619
    15  H    0.131385
    16  H    0.164830
    17  H    0.156767
    18  H    0.234720
    19  H    0.243877
    20  H    0.242040
    21  O   -0.351043
    22  O    0.444560
 Sum of APT charges =   0.00010
 APT charges with hydrogens summed into heavy atoms:
               1
     1  O   -0.666667
     2  C    0.871669
     3  C   -0.285621
     4  C    0.107289
     5  C    0.039203
     6  C   -0.362213
     8  C    1.237736
     9  O   -0.761069
    10  C   -0.273741
    21  O   -0.351043
    22  O    0.444560
 Charge=              0.0000 electrons
 Dipole moment (field-independent basis, Debye):
    X=              2.5581    Y=              2.7295    Z=              1.6745  Tot=              4.0986
 N-N= 3.837553974482D+02 E-N=-6.874054256042D+02  KE=-3.731374589053D+01
  Exact polarizability:  62.701  -0.395  88.264 -11.043  11.202  54.409
 Approx polarizability:  45.814  -2.593  64.777  -3.813  11.539  34.753
 Leave Link  601 at Thu Feb  4 08:41:13 2021, MaxMem=    33554432 cpu:         0.1
 (Enter /apps/applications/gaussian/G09.D01/2/default/g09/l701.exe)
 Compute integral second derivatives.
 ... and contract with generalized density number  0.
 Leave Link  701 at Thu Feb  4 08:41:13 2021, MaxMem=    33554432 cpu:         0.1
 (Enter /apps/applications/gaussian/G09.D01/2/default/g09/l702.exe)
 L702 exits ... SP integral derivatives will be done elsewhere.
 Leave Link  702 at Thu Feb  4 08:41:13 2021, MaxMem=    33554432 cpu:         0.1
 (Enter /apps/applications/gaussian/G09.D01/2/default/g09/l703.exe)
 Compute integral second derivatives, UseDBF=F ICtDFT=           0.
 Integral derivatives from FoFJK, PRISM(SPDF).
 Calling FoFJK, ICntrl=    100127 FMM=F ISym2X=0 I1Cent= 0 IOpClX= 1 NMat=1 NMatS=1 NMatT=0.
 FoFJK:  IHMeth=40 ICntrl=  100127 DoSepK=F KAlg= 0 I1Cent=   0 FoldK=F
 IRaf=         0 NMat=   1 IRICut=       1 DoRegI=T DoRafI=F ISym2E= 0.
 FoFCou: FMM=F IPFlag=           0 FMFlag=      100000 FMFlg1=         800
         NFxFlg=           0 DoJE=F BraDBF=F KetDBF=F FulRan=T
         wScrn=  0.000000 ICntrl=  100127 IOpCl=  1 I1Cent=           0 NGrid=           0
         NMat0=    1 NMatS0=      1 NMatT0=    0 NMatD0=    1 NMtDS0=    0 NMtDT0=    0
 Symmetry not used in FoFCou.
 Leave Link  703 at Thu Feb  4 08:41:13 2021, MaxMem=    33554432 cpu:         0.1
 (Enter /apps/applications/gaussian/G09.D01/2/default/g09/l716.exe)
 Dipole        = 1.00643964D+00 1.07387317D+00 6.58817544D-01
 Polarizability= 6.27005973D+01-3.95369389D-01 8.82643049D+01
                -1.10431635D+01 1.12022396D+01 5.44089748D+01
 HyperPolar    = 2.28873495D+01-1.58221016D+01 3.04923169D+01
                 2.10640202D+02 4.66862644D+00 1.22307580D+01
                 7.93925661D+01 2.86587983D+01 3.64505226D+01
                -1.27976270D+01
 -------------------------------------------------------------------
 Center     Atomic                   Forces (Hartrees/Bohr)
 Number     Number              X              Y              Z
 -------------------------------------------------------------------
      1        8           0.001029365    0.001135234    0.000445684
      2        6          -0.000815861    0.000800846   -0.000107537
      3        6           0.000025317   -0.000321307   -0.000528172
      4        6           0.000325722   -0.000480237    0.000200410
      5        6          -0.000258794    0.000872276    0.000211730
      6        6          -0.001461679    0.002316665    0.006264708
      7        1           0.001596941    0.000204849    0.000628781
      8        6          -0.000226991   -0.001131368   -0.000908209
      9        8          -0.000345876   -0.000520389    0.000016662
     10        6           0.000056397   -0.000024079   -0.000825013
     11        1          -0.001023155   -0.000534229    0.000397123
     12        1           0.000314603   -0.000505788    0.000618306
     13        1          -0.001501115   -0.001215847   -0.000546178
     14        1           0.000327149    0.000284473   -0.000182788
     15        1           0.000397120   -0.000451052    0.001555846
     16        1          -0.000205938    0.000493151    0.000406811
     17        1          -0.000613924    0.001582359   -0.000179593
     18        1          -0.000109135   -0.000397919    0.000892481
     19        1          -0.000385163   -0.000319563   -0.000152230
     20        1          -0.000057976    0.000180395   -0.000735789
     21        8          -0.001529511   -0.000109666   -0.000118065
     22        8           0.004462503   -0.001858806   -0.007354969
 -------------------------------------------------------------------
 Cartesian Forces:  Max     0.007354969 RMS     0.001521258
 Leave Link  716 at Thu Feb  4 08:41:13 2021, MaxMem=    33554432 cpu:         0.0
 (Enter /apps/applications/gaussian/G09.D01/2/default/g09/l103.exe)

 GradGradGradGradGradGradGradGradGradGradGradGradGradGradGradGradGradGrad
 Berny optimization.
 Search for a saddle point.
 Step number   1 out of a maximum of  100
 All quantities printed in internal units (Hartrees-Bohrs-Radians)
 Swapping is turned off.
 Second derivative matrix not updated -- analytic derivatives used.
 ITU=  0
     Eigenvalues ---   -0.00134  -0.00037  -0.00026  -0.00001   0.00007
     Eigenvalues ---    0.00026   0.00041   0.00472   0.00654   0.00846
     Eigenvalues ---    0.01345   0.01514   0.02419   0.02582   0.03858
     Eigenvalues ---    0.03910   0.04111   0.04642   0.04731   0.05151
     Eigenvalues ---    0.05451   0.05899   0.05965   0.06264   0.06602
     Eigenvalues ---    0.06705   0.07217   0.07999   0.08276   0.09625
     Eigenvalues ---    0.11595   0.12964   0.14232   0.15606   0.16570
     Eigenvalues ---    0.17915   0.20549   0.23285   0.24575   0.25445
     Eigenvalues ---    0.31268   0.36073   0.41238   0.44458   0.49686
     Eigenvalues ---    0.51095   0.55418   0.56987   0.57762   0.58014
     Eigenvalues ---    0.60659   0.60803   0.64701   0.68901   0.69225
     Eigenvalues ---    0.71945   0.74798   0.89025   1.66287   1.67154
 Eigenvectors required to have negative eigenvalues:
                          Z21       Z22       Y21       X22       Y7
   1                    0.48725  -0.45731  -0.42306  -0.26763  -0.20714
                          Z9        Y22       Z7        X21       Y9
   1                    0.19555   0.17457  -0.15526   0.11881   0.11441
 Eigenvalue     2 is  -3.73D-04 should be greater than     0.000000 Eigenvector:
                          Y14       Y15       Y11       X21       Y4
   1                    0.43428   0.37201  -0.31135  -0.25590   0.23647
                          X15       Z1        X14       X1        X12
   1                    0.21986  -0.19707  -0.18923   0.18203  -0.17751
 Eigenvalue     3 is  -2.58D-04 should be greater than     0.000000 Eigenvector:
                          Z20       Y18       Y19       X19       Z19
   1                    0.52464  -0.45243   0.44186  -0.29940  -0.26803
                          Y20       X20       Z18       Z9        Z21
   1                    0.21397   0.19869  -0.15410  -0.09627   0.08466
 Eigenvalue     4 is  -6.69D-06 should be greater than     0.000000 Eigenvector:
                          Z21       Y17       Y16       X16       Y11
   1                    0.38671   0.35634   0.23891  -0.23566  -0.19862
                          Y5        Z12       Y13       Z11       Z15
   1                    0.19295   0.18787  -0.18102   0.16600  -0.16224
 RFO step:  Lambda0=1.550387335D-04 Lambda=-1.87299744D-03.
 Linear search not attempted -- option 19 set.
 Maximum step size (   0.300) exceeded in Quadratic search.
    -- Step size scaled by   0.281
 TrRot= -0.001044 -0.004976 -0.009985 -0.939268  0.003143  0.937292
 Variable       Old X    -DE/DX   Delta X   Delta X   Delta X     New X
                                 (Linear)    (Quad)   (Total)
    X1       -5.04545   0.00103   0.00000   0.06234   0.06098  -4.98446
    Y1       -2.40445   0.00114   0.00000  -0.02946  -0.03072  -2.43517
    Z1        2.42815   0.00045   0.00000  -0.01263  -0.01952   2.40863
    X2       -5.44079  -0.00082   0.00000   0.00682   0.01108  -5.42972
    Y2       -0.29768   0.00080   0.00000  -0.03846  -0.04085  -0.33853
    Z2        3.22139  -0.00011   0.00000  -0.01696  -0.01770   3.20369
    X3       -3.72488   0.00003   0.00000  -0.02368  -0.01565  -3.74054
    Y3        1.94678  -0.00032   0.00000  -0.00912  -0.01386   1.93293
    Z3        2.79891  -0.00053   0.00000   0.01674   0.01863   2.81754
    X4       -1.25469   0.00033   0.00000  -0.00237   0.00195  -1.25274
    Y4        1.27231  -0.00048   0.00000   0.04689   0.04062   1.31294
    Z4        1.45848   0.00020   0.00000   0.02568   0.02137   1.47985
    X5       -1.56377  -0.00026   0.00000   0.00385   0.00216  -1.56161
    Y5        0.93248   0.00087   0.00000   0.03293   0.03452   0.96701
    Z5       -1.40485   0.00021   0.00000   0.02666   0.02203  -1.38282
    X6        0.75040  -0.00146   0.00000   0.01346   0.01086   0.76126
    Y6        1.84101   0.00232   0.00000   0.00108   0.00169   1.84270
    Z6       -2.81897   0.00626   0.00000   0.02138   0.01466  -2.80431
    X7        2.44400   0.00160   0.00000   0.02282   0.02266   2.46665
    Y7        1.94810   0.00020   0.00000  -0.01363  -0.01947   1.92863
    Z7       -1.59117   0.00063   0.00000   0.00799  -0.00167  -1.59284
    X8        0.41334  -0.00023   0.00000   0.01866   0.01821   0.43155
    Y8        4.30979  -0.00113   0.00000  -0.01139  -0.00643   4.30336
    Z8       -4.25859  -0.00091   0.00000  -0.00247  -0.00235  -4.26094
    X9       -1.52884  -0.00035   0.00000   0.01797   0.01999  -1.50885
    Y9        5.50805  -0.00052   0.00000  -0.01123  -0.00258   5.50547
    Z9       -4.18785   0.00002   0.00000  -0.02043  -0.01366  -4.20151
   X10        2.68459   0.00006   0.00000   0.02032   0.01886   2.70344
   Y10        5.19187  -0.00002   0.00000  -0.03238  -0.02820   5.16367
   Z10       -5.70716  -0.00083   0.00000  -0.01247  -0.01439  -5.72155
   X11       -7.14531  -0.00102   0.00000  -0.02100  -0.01392  -7.15923
   Y11        0.14204  -0.00053   0.00000  -0.07437  -0.07610   0.06594
   Z11        4.33496   0.00040   0.00000  -0.04390  -0.04040   4.29456
   X12       -4.76878   0.00031   0.00000  -0.03722  -0.02832  -4.79711
   Y12        3.40785  -0.00051   0.00000  -0.01191  -0.01180   3.39605
   Z12        1.69866   0.00062   0.00000   0.02787   0.03543   1.73408
   X13       -3.28403  -0.00150   0.00000  -0.05459  -0.04134  -3.32537
   Y13        2.86940  -0.00122   0.00000  -0.02751  -0.03776   2.83165
   Z13        4.63474  -0.00055   0.00000   0.03219   0.03559   4.67033
   X14        0.15004   0.00033   0.00000  -0.04052  -0.03241   0.11763
   Y14        2.76469   0.00028   0.00000   0.08528   0.07526   2.83995
   Z14        1.87876  -0.00018   0.00000   0.01789   0.01491   1.89367
   X15       -0.48488   0.00040   0.00000   0.04030   0.04265  -0.44222
   Y15       -0.50606  -0.00045   0.00000   0.07025   0.06033  -0.44573
   Z15        2.25727   0.00156   0.00000   0.03791   0.02764   2.28491
   X16       -1.90709  -0.00021   0.00000  -0.02190  -0.02843  -1.93551
   Y16       -1.10423   0.00049   0.00000   0.03634   0.03980  -1.06443
   Z16       -1.86092   0.00041   0.00000   0.03798   0.02889  -1.83202
   X17       -3.28472  -0.00061   0.00000   0.01688   0.01585  -3.26887
   Y17        1.90111   0.00158   0.00000   0.05590   0.06266   1.96377
   Z17       -2.10548  -0.00018   0.00000   0.01926   0.02032  -2.08516
   X18        4.45481  -0.00011   0.00000   0.00978   0.01017   4.46498
   Y18        5.06692  -0.00040   0.00000   0.01449   0.01244   5.07936
   Z18       -4.64340   0.00089   0.00000   0.01172   0.00633  -4.63707
   X19        2.94591  -0.00039   0.00000   0.04400   0.03707   2.98299
   Y19        4.07192  -0.00032   0.00000  -0.08226  -0.07434   3.99758
   Z19       -7.43991  -0.00015   0.00000   0.02336   0.01796  -7.42195
   X20        2.46059  -0.00006   0.00000   0.00752   0.00874   2.46933
   Y20        7.17543   0.00018   0.00000  -0.05193  -0.04565   7.12977
   Z20       -6.29440  -0.00074   0.00000  -0.07432  -0.07081  -6.36521
   X21        0.33594  -0.00153   0.00000  -0.08242  -0.09676   0.23918
   Y21       -1.84056  -0.00011   0.00000   0.06470   0.07262  -1.76795
   Z21       -5.20940  -0.00012   0.00000  -0.06719  -0.08212  -5.29151
   X22        1.69919   0.00446   0.00000  -0.01430  -0.02439   1.67480
   Y22       -0.16764  -0.00186   0.00000  -0.01574  -0.01217  -0.17982
   Z22       -4.68891  -0.00735   0.00000   0.01244  -0.00112  -4.69003
         Item               Value     Threshold  Converged?
 Maximum Force            0.007355     0.000450     NO 
 RMS     Force            0.001521     0.000300     NO 
 Maximum Displacement     0.096764     0.001800     NO 
 RMS     Displacement     0.036369     0.001200     NO 
 Predicted change in Energy=-5.131675D-04
 Lowest energy point so far.  Saving SCF results.
 GradGradGradGradGradGradGradGradGradGradGradGradGradGradGradGradGradGrad

 Leave Link  103 at Thu Feb  4 08:41:13 2021, MaxMem=    33554432 cpu:         0.0
 (Enter /apps/applications/gaussian/G09.D01/2/default/g09/l202.exe)
                          Input orientation:                          
 ---------------------------------------------------------------------
 Center     Atomic      Atomic             Coordinates (Angstroms)
 Number     Number       Type             X           Y           Z
 ---------------------------------------------------------------------
      1          8           0       -2.637665   -1.288638    1.274590
      2          6           0       -2.873283   -0.179143    1.695317
      3          6           0       -1.979406    1.022860    1.490979
      4          6           0       -0.662920    0.694776    0.783105
      5          6           0       -0.826366    0.511717   -0.731755
      6          6           0        0.402843    0.975115   -1.483979
      7          1           0        1.305297    1.020586   -0.842897
      8          6           0        0.228367    2.277240   -2.254794
      9          8           0       -0.798449    2.913370   -2.223341
     10          6           0        1.430600    2.732497   -3.027716
     11          1           0       -3.788499    0.034894    2.272584
     12          1           0       -2.538520    1.797113    0.917638
     13          1           0       -1.759712    1.498443    2.471431
     14          1           0        0.062249    1.502837    1.002086
     15          1           0       -0.234014   -0.235871    1.209120
     16          1           0       -1.024230   -0.563271   -0.969465
     17          1           0       -1.729810    1.039181   -1.103417
     18          1           0        2.362768    2.687882   -2.453834
     19          1           0        1.578529    2.115428   -3.927527
     20          1           0        1.306712    3.772913   -3.368325
     21          8           0        0.126568   -0.935558   -2.800149
     22          8           0        0.886265   -0.095155   -2.481858
 ---------------------------------------------------------------------
                    Distance matrix (angstroms):
                    1          2          3          4          5
     1  O    0.000000
     2  C    1.209755   0.000000
     3  C    2.413121   1.511814   0.000000
     4  C    2.841673   2.545894   1.530314   0.000000
     5  C    3.247692   3.249283   2.555643   1.534610   0.000000
     6  C    4.688173   4.708847   3.811530   2.520735   1.513781
     7  H    5.036190   5.034124   4.029423   2.573695   2.194376
     8  C    5.778078   5.590835   4.525323   3.539409   2.559137
     9  O    5.768458   5.405965   4.331843   3.738883   2.827286
    10  C    7.157523   7.021973   5.913510   4.801821   3.911163
    11  H    2.017956   1.103027   2.204496   3.524662   4.245898
    12  H    3.107910   2.149986   1.113910   2.179707   2.702630
    13  H    3.157697   2.157936   1.111634   2.167782   3.479247
    14  H    3.893087   3.453545   2.153543   1.107603   2.185900
    15  H    2.624908   2.684278   2.170309   1.109754   2.162583
    16  H    2.857467   3.266132   3.079279   2.187403   1.118595
    17  H    3.449327   3.259564   2.606426   2.194501   1.110208
    18  H    7.397174   7.269905   6.098223   4.858501   4.227508
    19  H    7.511723   7.529945   6.573645   5.406699   4.309103
    20  H    7.920484   7.663654   6.478750   5.530710   4.704989
    21  O    4.936511   5.457150   5.165685   4.015095   2.698321
    22  O    5.287096   5.620503   5.024486   3.699182   2.522748
                    6          7          8          9         10
     6  C    0.000000
     7  H    1.107915   0.000000
     8  C    1.523197   2.175411   0.000000
     9  O    2.397205   3.148651   1.208305   0.000000
    10  C    2.554956   2.778449   1.500010   2.376634   0.000000
    11  H    5.706411   6.051823   6.454494   6.118772   7.912600
    12  H    3.885236   4.298535   4.236804   3.760270   5.674035
    13  H    4.538257   4.539536   5.186153   4.996692   6.476233
    14  H    2.564178   2.276334   3.351800   3.624056   4.429870
    15  H    3.020738   2.856385   4.304443   4.692345   5.434421
    16  H    2.160530   2.819807   3.359996   3.702731   4.596158
    17  H    2.167288   3.046324   2.587067   2.373657   4.069206
    18  H    2.777678   2.548184   2.182638   3.177619   1.095567
    19  H    2.941680   3.284552   2.155726   3.031664   1.101053
    20  H    3.492194   3.735384   2.154023   2.545880   1.101738
    21  O    2.336515   3.007779   3.260344   4.000326   3.899604
    22  O    1.541083   2.026490   2.472377   3.457791   2.930849
                   11         12         13         14         15
    11  H    0.000000
    12  H    2.550244   0.000000
    13  H    2.509481   1.763524   0.000000
    14  H    4.312457   2.618726   2.340627   0.000000
    15  H    3.720031   3.086864   2.632304   1.775877   0.000000
    16  H    4.302310   3.380184   4.078157   3.055528   2.340484
    17  H    4.079728   2.305024   3.604352   2.803497   3.034961
    18  H    8.198504   6.015223   6.532062   4.317418   5.358063
    19  H    8.460201   6.366085   7.243699   5.193790   5.932880
    20  H    8.470763   6.087617   6.977028   5.079609   6.276719
    21  O    6.480906   5.328425   6.105076   4.517399   4.085807
    22  O    6.668962   5.183281   5.837449   3.920516   3.859812
                   16         17         18         19         20
    16  H    0.000000
    17  H    1.756029   0.000000
    18  H    4.923931   4.614220   0.000000
    19  H    4.764442   4.480961   1.764796   0.000000
    20  H    5.476341   4.671570   1.768853   1.770267   0.000000
    21  O    2.194159   3.197597   4.271983   3.561978   4.887255
    22  O    2.481220   3.167122   3.150578   2.730543   3.990557
                   21         22
    21  O    0.000000
    22  O    1.176744   0.000000
 Symmetry turned off by external request.
 Stoichiometry    C7H11O4(2)
 Framework group  C1[X(C7H11O4)]
 Deg. of freedom    60
 Full point group                 C1      NOp   1
 Rotational constants (GHZ):      1.7738558      0.5648716      0.4700391
 Leave Link  202 at Thu Feb  4 08:41:13 2021, MaxMem=    33554432 cpu:         0.0
 (Enter /apps/applications/gaussian/G09.D01/2/default/g09/l301.exe)
 Standard basis: VSTO-6G (5D, 7F)
 Ernie: Thresh=  0.10000D-02 Tol=  0.10000D-05 Strict=F.
  NNHCO=     0 NNPyr=     0 NCTC=     0               EPep=         0.000000000
    EC=       299.342250175  ECS=         4.485689337   EG=         0.375143533
   EHC=         0.001991841  EAt=       -76.388488019  AtH=         3.199295150
 EPDDG=         0.000000000  ECC=       304.205074887 EAtT=        79.587783169
    55 basis functions,   330 primitive gaussians,    55 cartesian basis functions
    32 alpha electrons       31 beta electrons
       nuclear repulsion energy       383.7928580553 Hartrees.
 IExCor=    0 DFT=F Ex=HF Corr=None ExCW=0 ScaHFX=  1.000000
 ScaDFX=  1.000000  1.000000  1.000000  1.000000 ScalE2=  1.000000  1.000000
 IRadAn=      0 IRanWt=     -1 IRanGd=            0 ICorTp=0 IEmpDi=  4
 Integral buffers will be    131072 words long.
 Regular integral format.
 Two-electron integral symmetry is turned off.
 Leave Link  301 at Thu Feb  4 08:41:13 2021, MaxMem=    33554432 cpu:         0.1
 (Enter /apps/applications/gaussian/G09.D01/2/default/g09/l302.exe)
 Do NDO integrals.
 NPDir=0 NMtPBC=     1 NCelOv=     1 NCel=       1 NClECP=     1 NCelD=      1
         NCelK=      1 NCelE2=     1 NClLst=     1 CellRange=     0.0.
 One-electron integrals computed using PRISM.
 NBasis=    55 RedAO= F EigKep=  0.00D+00  NBF=    55
 NBsUse=    55 1.00D-04 EigRej=  0.00D+00 NBFU=    55
 Leave Link  302 at Thu Feb  4 08:41:13 2021, MaxMem=    33554432 cpu:         0.1
 (Enter /apps/applications/gaussian/G09.D01/2/default/g09/l303.exe)
 DipDrv:  MaxL=1.
 Leave Link  303 at Thu Feb  4 08:41:13 2021, MaxMem=    33554432 cpu:         0.0
 (Enter /apps/applications/gaussian/G09.D01/2/default/g09/l401.exe)
 Initial guess from the checkpoint file:  "/nobackup/chmrsh/Scratch/Gau-130916.chk"
 B after Tr=     0.000143   -0.010954   -0.018768
         Rot=    0.999993   -0.002451   -0.001941    0.001933 Ang=  -0.42 deg.
 Guess basis will be translated and rotated to current coordinates.
 JPrj=0 DoOrth=T DoCkMO=T.
 Initial guess <Sx>= 0.0000 <Sy>= 0.0000 <Sz>= 0.5000 <S**2>= 0.7864 S= 0.5180
 Leave Link  401 at Thu Feb  4 08:41:13 2021, MaxMem=    33554432 cpu:         0.1
 (Enter /apps/applications/gaussian/G09.D01/2/default/g09/l508.exe)
 Direct SCF.
 Tight linear equation convergence will be used.
 UPM6 wavefunction.
 Quadratic Convergence SCF Method.
 Line search only if initial step raises energy.
 Two-electron integral symmetry not used.
 ReadGW:  IGet=1 IStart=       59293 Next=       59293 LGW=           0.
 Keep J ints in memory in canonical form, NReq=909807.
 FoFCou: FMM=F IPFlag=           0 FMFlag=           0 FMFlg1=           0
         NFxFlg=           0 DoJE=F BraDBF=F KetDBF=F FulRan=T
         wScrn=  0.000000 ICntrl=     600 IOpCl=  2 I1Cent=           0 NGrid=           0
         NMat0=    1 NMatS0=    121 NMatT0=    0 NMatD0=    1 NMtDS0=    0 NMtDT0=    0
 Symmetry not used in FoFCou.
 Iteration   1 EE=-0.119739299664218                                    Grad=5.479D-02 Max rot=    1.0376 deg.
 Gradient too large for Newton-Raphson -- use scaled steepest descent instead.
 Alpha Gap=     0.357 HL deriv= 1.18D-03
  Beta Gap=     0.353 HL deriv= 3.70D-03
     ILin= 1 X=0.000D+00 Y=-1.197392996642D-01 DE= 0.00D+00 F= -7.40D-03
     ILin= 2 X=3.000D-01 Y=-1.217592751977D-01 DE=-2.02D-03 F= -6.06D-03
     ILin= 3 X=6.000D-01 Y=-1.233761252207D-01 DE=-3.64D-03 F= -4.72D-03
     ILin= 4 X=1.200D+00 Y=-1.253987157587D-01 DE=-5.66D-03 F= -2.02D-03
     ILin= 5 X=2.400D+00 Y=-1.245939464189D-01 DE=-4.85D-03 F=  3.36D-03
     An  expanding polynomial of degree  5 produced  1.6507
 Iteration   2 EE=-0.125854872487764     Delta-E=       -0.006115572824 Grad=7.253D-03 Max rot=    0.1522 deg.
 QCNR:  CnvC1=3.85D-09 CnvC2=3.85D-08
 LinEq1:  Iter=  0 NonCon=     1 RMS=2.46D-04 Max=2.51D-03 NDo=     1
 AX will form     1 AO Fock derivatives at one time.
 LinEq1:  Iter=  1 NonCon=     1 RMS=4.93D-05 Max=8.57D-04 NDo=     1
 LinEq1:  Iter=  2 NonCon=     1 RMS=9.52D-06 Max=1.80D-04 NDo=     1
 LinEq1:  Iter=  3 NonCon=     1 RMS=1.46D-06 Max=1.56D-05 NDo=     1
 LinEq1:  Iter=  4 NonCon=     1 RMS=3.02D-07 Max=3.45D-06 NDo=     1
 LinEq1:  Iter=  5 NonCon=     1 RMS=5.71D-08 Max=7.00D-07 NDo=     1
 LinEq1:  Iter=  6 NonCon=     1 RMS=1.54D-08 Max=1.70D-07 NDo=     1
 LinEq1:  Iter=  7 NonCon=     1 RMS=4.29D-09 Max=4.68D-08 NDo=     1
 LinEq1:  Iter=  8 NonCon=     0 RMS=9.84D-10 Max=1.08D-08 NDo=     1
 Linear equations converged to 3.847D-09 3.847D-08 after     8 iterations.
 Angle between quadratic step and gradient=  47.12 degrees.
     ILin= 1 X=0.000D+00 Y=-1.258548724878D-01 DE= 0.00D+00 F= -2.41D-04
     ILin= 2 X=1.000D+00 Y=-1.259753228383D-01 DE=-1.20D-04 F= -1.55D-08
     Reject lnstep minimum 1.000D+00 FVal=-1.259753228388D-01 Lims=  0.00D+00  1.00D+00
     ILin= 3 X=2.000D+00 Y=-1.258549549568D-01 DE=-8.25D-08 F=  2.41D-04
     An  expanding polynomial of degree  3 produced  1.0002
     Minimum is close to point  2 DX=  1.71D-04 DF= -3.53D-12 DXR=  1.71D-04 DFR=  2.93D-08 which will be used.
 Iteration   3 EE=-0.125975322838258     Delta-E=       -0.000120450350 Grad=2.056D-05 Max rot=    0.0005 deg.
 QCNR:  CnvC1=2.06D-10 CnvC2=2.06D-09
 LinEq1:  Iter=  0 NonCon=     1 RMS=7.45D-07 Max=7.11D-06 NDo=     1
 LinEq1:  Iter=  1 NonCon=     1 RMS=1.96D-07 Max=2.30D-06 NDo=     1
 LinEq1:  Iter=  2 NonCon=     1 RMS=4.57D-08 Max=6.12D-07 NDo=     1
 LinEq1:  Iter=  3 NonCon=     1 RMS=8.79D-09 Max=6.70D-08 NDo=     1
 LinEq1:  Iter=  4 NonCon=     1 RMS=1.96D-09 Max=3.29D-08 NDo=     1
 LinEq1:  Iter=  5 NonCon=     1 RMS=5.17D-10 Max=6.98D-09 NDo=     1
 LinEq1:  Iter=  6 NonCon=     0 RMS=1.16D-10 Max=1.37D-09 NDo=     1
 Linear equations converged to 2.056D-10 2.056D-09 after     6 iterations.
 Angle between quadratic step and gradient=  41.56 degrees.
     ILin= 1 X=0.000D+00 Y=-1.259753228383D-01 DE= 0.00D+00 F= -2.48D-09
     ILin= 2 X=1.000D+00 Y=-1.259753240802D-01 DE=-1.24D-09
 Iteration   4 EE=-0.125975324080230     Delta-E=       -0.000000001242 Grad=1.686D-07 Max rot=    0.0000 deg.
 Rotation gradient small -- convergence achieved.
 SCF Done:  E(UPM6) = -0.125975324080     a.u. after    4 cycles
            Convg  =    0.1686D-06                    23 Fock formations.
              S**2 =  0.7878                  -V/T =  0.9966
 <Sx>= 0.0000 <Sy>= 0.0000 <Sz>= 0.5000 <S**2>= 0.7878 S= 0.5187
 <L.S>= 0.000000000000E+00
 Annihilation of the first spin contaminant:
 S**2 before annihilation     0.7878,   after     0.7501
 Leave Link  508 at Thu Feb  4 08:41:14 2021, MaxMem=    33554432 cpu:         0.1
 (Enter /apps/applications/gaussian/G09.D01/2/default/g09/l801.exe)
 Range of M.O.s used for correlation:     1    55
 NBasis=    55 NAE=    32 NBE=    31 NFC=     0 NFV=     0
 NROrb=     55 NOA=    32 NOB=    31 NVA=    23 NVB=    24
 Leave Link  801 at Thu Feb  4 08:41:14 2021, MaxMem=    33554432 cpu:         0.1
 (Enter /apps/applications/gaussian/G09.D01/2/default/g09/l1101.exe)
 Using compressed storage, NAtomX=    22.
 Will process     23 centers per pass.
 Leave Link 1101 at Thu Feb  4 08:41:14 2021, MaxMem=    33554432 cpu:         0.1
 (Enter /apps/applications/gaussian/G09.D01/2/default/g09/l1102.exe)
 Symmetrizing basis deriv contribution to polar:
 IMax=3 JMax=2 DiffMx= 0.00D+00
 Leave Link 1102 at Thu Feb  4 08:41:14 2021, MaxMem=    33554432 cpu:         0.1
[...]
 1735,-0.00093174,0.00019054,-0.00078022,0.05163888,-0.00069209,0.00151
 614,0.00075610,-0.01408207,-0.02838824,-0.00698677,0.02438720,-0.20673
 023,0.00470998,0.01423633,-0.01410264,-0.00763786,0.00022586,-0.000117
 94,-0.00040848,-0.00012403,-0.00031534,0.00017036,-0.00001933,0.000128
 85,0.00008324,-0.00028585,0.00073050,0.00007249,0.00024559,-0.00043193
 ,-0.00021581,0.00003360,-0.00019230,-0.00003488,-0.00022144,0.00070148
 ,-0.00015403,-0.02814913,0.25876107,-0.00103201,-0.00025348,-0.0013039
 4,-0.00381988,-0.01132609,0.00319551,0.00099116,0.00514809,-0.03077134
 ,0.00848303,-0.01468584,-0.00001937,0.00039342,-0.00036461,-0.00076963
 ,-0.00004727,-0.00007101,0.00004612,0.00005385,0.00002629,0.00008113,0
 .00012252,0.00010362,-0.00025435,-0.00011172,-0.00010894,0.00009240,-0
 .00009520,-0.00003574,0.00017807,-0.00018440,0.00041175,-0.00014535,-0
 .00312002,0.00098178,0.03688838,-0.00152345,-0.00243209,0.00062773,-0.
 01005526,0.00050941,-0.02641134,-0.03728296,0.00746444,-0.02736955,-0.
 00296501,-0.00203901,0.02258205,-0.00182561,0.00055552,0.00167505,-0.0
 0004518,-0.00010703,0.00021118,0.00002768,0.00002545,0.00008533,-0.000
 03176,0.00002075,-0.00000511,-0.00000881,-0.00002738,-0.00001145,-0.00
 001979,-0.00000273,0.00001349,-0.00078744,-0.00102123,0.00089915,0.003
 06988,0.00330179,-0.00352504,0.05206620,-0.00079576,-0.00278145,-0.000
 13179,-0.00554803,0.00620403,-0.01075127,0.00659106,-0.03961175,0.0394
 4148,0.00033959,0.00408844,-0.00485759,0.00060415,-0.00015661,-0.00029
 361,0.00004127,-0.00002176,-0.00015303,-0.00001748,0.00002573,0.000057
 53,-0.00003551,0.00015799,0.00008147,0.00004646,-0.00008949,-0.0000797
 1,0.00001718,-0.00004747,-0.00005833,-0.00033912,-0.00053857,0.0005988
 0,0.00506365,-0.01182875,0.02090302,-0.00609916,0.04385712,0.00007006,
 0.00134687,0.00179369,-0.01926318,-0.00642807,-0.02158701,-0.02306194,
 0.04016705,-0.19584483,0.01250488,0.00086441,-0.02696451,0.00124100,-0
 .00031269,-0.00066271,-0.00003331,-0.00005901,-0.00007082,0.00002674,0
 .00004890,0.00002020,0.00000918,0.00025707,-0.00015604,-0.00000535,-0.
 00016997,0.00003489,-0.00005730,-0.00008274,0.00013245,-0.00002218,-0.
 00005821,0.00067258,-0.00210708,0.00914517,-0.00561650,0.02967810,-0.0
 4440816,0.24849469,0.00057879,0.00042054,0.00027904,-0.00259684,0.0004
 6156,0.00120424,-0.03749130,-0.00412069,-0.00195785,-0.14941653,-0.041
 34015,-0.07258212,-0.00175948,0.00069361,-0.01093632,0.00049506,-0.000
 41796,0.00086227,0.00019346,0.00000065,-0.00014535,-0.00005917,0.00002
 330,0.00002281,-0.00003642,-0.00006558,0.00000518,-0.00006900,-0.00001
 702,0.00007838,-0.00030684,-0.00013868,-0.00012352,-0.00054547,0.00045
 272,0.00003632,-0.00050475,-0.00021553,0.00056890,0.19279160,-0.000193
 71,-0.00012262,0.00008184,0.00052039,-0.00019467,-0.00085220,0.0055907
 1,0.00425171,0.00160726,-0.04523069,-0.04893045,-0.02776563,0.00633911
 ,0.00414647,0.00769653,0.00018509,0.00005017,0.00127468,-0.00031285,-0
 .00012905,0.00009041,0.00010952,0.00018007,0.00031931,-0.00000468,-0.0
 0009041,-0.00015978,-0.00002787,-0.00008301,-0.00008848,0.00011269,0.0
 0006858,0.00006537,0.00063744,0.00017838,-0.00011145,-0.00029365,0.000
 49447,0.00026147,0.05078453,0.05438037,-0.00013229,0.00002225,0.000059
 57,0.00136589,-0.00076139,-0.00087225,0.00974055,0.00196583,0.00509827
 ,-0.07388698,-0.02625518,-0.07837446,-0.02081517,-0.00086304,-0.028089
 15,0.00034811,0.00128415,-0.00272739,0.00051738,0.00071839,-0.00006244
 ,-0.00033300,0.00023499,-0.00013382,0.00009769,-0.00026113,0.00002866,
 0.00006763,-0.00006240,0.00014229,0.00027371,0.00019452,0.00013718,0.0
 0010480,0.00018660,0.00019964,0.00109516,0.00013554,0.00031067,0.08665
 035,0.02812750,0.10705270,0.00080102,-0.00078607,-0.00041946,-0.002111
 59,0.00216261,0.00126469,-0.01015593,0.02520611,0.00963953,-0.03388503
 ,0.00746931,0.00023541,0.00406779,0.00182488,-0.00097764,-0.00022962,-
 0.00003210,-0.00001287,-0.00002397,-0.00006651,0.00002310,0.00008699,-
 0.00014066,0.00005602,-0.00006121,0.00011991,-0.00001593,-0.00007877,0
 .00003371,-0.00006369,0.00013512,-0.00000496,-0.00001378,-0.00207094,0
 .00067486,0.00150537,-0.00001652,0.00038799,0.00028916,-0.00109835,-0.
 01806705,-0.00479396,0.04390888,0.00057511,-0.00138972,-0.00040821,0.0
 0125716,0.00187654,0.00113704,0.01241012,-0.01546076,-0.00910840,0.010
 30015,-0.20858940,-0.01157468,0.00023821,-0.02143189,0.01460708,0.0000
 9131,-0.00021185,0.00028299,0.00003369,-0.00011515,0.00007918,0.000005
 49,-0.00036080,0.00033016,-0.00003535,0.00020961,-0.00008037,0.0000442
 0,0.00004763,-0.00025277,-0.00023437,-0.00013592,-0.00026818,0.0006157
 9,-0.00032577,-0.00054220,0.00018269,0.00008282,-0.00058268,-0.0066884
 5,-0.01400740,-0.00569007,-0.01892553,0.25917591,0.00040615,-0.0002462
 8,-0.00059889,0.00009079,0.00032888,0.00103350,0.00817089,-0.01524645,
 -0.00311415,0.00045674,-0.01294076,-0.03283774,-0.00048623,0.02794160,
 -0.01004806,-0.00003699,0.00048769,-0.00111187,-0.00004974,-0.00002426
 ,0.00002055,0.00021398,0.00010148,-0.00004971,-0.00004465,-0.00000563,
 -0.00000527,-0.00005692,-0.00008041,-0.00004822,-0.00012310,-0.0001185
 8,-0.00003712,0.00136543,-0.00036796,-0.00055414,0.00046959,-0.0006297
 9,-0.00032355,-0.00352524,-0.01207794,0.00041398,-0.00642190,0.0107553
 5,0.04931636,0.00022714,-0.00005810,-0.00096445,0.00022542,0.00063872,
 0.00106462,-0.00069727,-0.00010900,-0.00037991,0.00406826,-0.00093986,
 -0.00290232,-0.03414312,-0.01375434,-0.01255953,-0.01266097,-0.0261781
 8,-0.01081450,-0.00231392,-0.00089467,0.00063390,-0.00016877,-0.000876
 11,-0.00022251,-0.00015516,0.00051971,-0.00008541,-0.00029805,0.000344
 33,-0.00034032,-0.00007831,-0.00011948,0.00002042,0.00004484,0.0000401
 7,0.00007679,0.00002267,-0.00000087,-0.00000046,-0.00004242,0.00002340
 ,-0.00020802,0.00069865,0.00008240,-0.00008691,0.04549156,0.00023344,-
 0.00063972,-0.00074536,0.00050053,0.00094440,0.00055181,-0.00030226,-0
 .00045993,0.00065232,0.00049267,0.00570948,0.00025160,-0.01476032,-0.1
 2826399,-0.08633383,-0.01742886,-0.01973246,-0.00815929,-0.00096220,-0
 .00071095,0.00020392,-0.00074083,-0.00134967,0.00058078,0.00000891,0.0
 0023750,-0.00004455,0.00025337,-0.00016920,-0.00047169,-0.00007107,-0.
 00010329,-0.00007447,0.00003912,-0.00001283,-0.00013680,-0.00010684,0.
 00004593,0.00001375,0.00001311,-0.00023645,0.00068866,0.00007268,0.000
 90860,0.00123120,0.02702716,0.15999010,-0.00040761,-0.00021645,-0.0001
 3017,0.00050752,0.00023023,0.00004523,-0.00025952,0.00040214,-0.000836
 48,-0.00222236,-0.01180182,-0.03612764,-0.01240013,-0.08408253,-0.1068
 8370,-0.00509231,-0.00250698,0.00401640,0.00078486,-0.00025117,-0.0002
 9563,0.00065609,0.00029398,0.00153120,-0.00001269,0.00004748,-0.000379
 98,-0.00058814,-0.00059843,-0.00038033,-0.00003213,-0.00003329,-0.0000
 4954,-0.00006053,-0.00003476,-0.00006621,0.00015253,-0.00001751,-0.000
 17068,-0.00030220,0.00061615,-0.00177513,-0.00013980,0.00028543,-0.000
 54139,0.01783987,0.10214285,0.14099722,-0.00024189,0.00010111,-0.00036
 849,0.00025204,-0.00020268,0.00088232,-0.00017866,-0.00012791,0.000552
 60,-0.00146290,0.00777167,-0.00873293,-0.14334780,0.08295461,-0.018630
 61,-0.03695991,0.00643179,0.00275131,-0.00062817,-0.00051213,-0.000104
 47,-0.00133331,-0.00256623,0.00266172,-0.00051722,0.00075870,-0.000174
 42,-0.00029318,0.00022134,-0.00054539,-0.00010998,-0.00007168,0.000040
 94,0.00030631,-0.00000122,0.00022631,-0.00012420,-0.00000089,0.0000995
 8,-0.00019387,-0.00000466,-0.00009603,-0.00000785,0.00021893,-0.000216
 66,0.00035212,0.00641620,0.00227558,0.18717108,0.00030727,-0.00006513,
 -0.00064169,-0.00030060,0.00043325,0.00104010,-0.00050003,-0.00038731,
 0.00102222,0.01008927,-0.00926776,0.01259841,0.08702217,-0.09518488,0.
 01401469,-0.00786156,0.00642977,0.00035457,-0.00031304,-0.00017816,0.0
 0027549,-0.00224351,0.00171046,0.00102482,0.00083965,-0.00072312,-0.00
 043358,0.00013850,-0.00053959,-0.00015260,-0.00002424,-0.00005917,0.00
 004069,0.00001277,0.00034586,0.00006105,0.00007767,0.00006223,-0.00003
 711,0.00009039,-0.00017281,0.00039730,0.00013218,-0.00039004,0.0007483
 1,0.01499329,-0.01652001,-0.00497958,-0.10035948,0.11466874,-0.0001388
 2,-0.00036577,-0.00047899,0.00090721,0.00107009,0.00021384,0.00030586,
 0.00077030,-0.00243311,-0.01859882,0.02058934,-0.01403015,-0.01614351,
 0.01344488,-0.03478284,0.00292842,-0.00147203,0.00335230,-0.00011083,-
 0.00000607,0.00001234,0.00232104,0.00098801,-0.00004846,-0.00018703,0.
 00002596,-0.00034477,-0.00070270,-0.00009098,-0.00006039,-0.00003010,-
 0.00004791,-0.00007011,0.00035776,-0.00028077,-0.00107891,-0.00015520,
 0.00011689,0.00000511,-0.00008736,0.00077481,-0.00137749,-0.00011573,0
 .00080118,-0.00161743,0.00880877,-0.01081775,0.00144370,0.01901620,-0.
 02548722,0.05151338,0.00004697,0.00004850,-0.00003917,-0.00006774,-0.0
 0004810,0.00003852,0.00003228,0.00004317,-0.00011902,-0.00001047,0.000
 05821,-0.00001161,-0.00021685,0.00005213,-0.00016564,-0.00008519,0.000
 06891,-0.00113677,0.00003328,0.00023897,-0.00005618,-0.01022218,0.0070
 9477,0.02043612,0.00049663,-0.00232842,-0.00153948,-0.20408574,-0.0071
 7823,0.04540650,-0.00000016,0.00000150,0.00001177,-0.00000555,-0.00000
 492,0.00004031,0.00000966,-0.00000927,0.00002917,0.00003333,-0.0000066
 6,0.00001662,0.00001046,-0.00003342,0.00000274,-0.00000171,-0.00005863
 ,0.00007521,-0.00004896,-0.00003776,0.00007631,0.24522583,0.00004053,-
 0.00001109,-0.00003660,-0.00003942,0.00001692,0.00003385,0.00003077,-0
 .00002688,-0.00005126,-0.00004529,-0.00002547,0.00001463,0.00017390,-0
 .00013607,0.00011085,-0.00040110,-0.00088230,0.00002513,0.00011825,0.0
 0003826,0.00001127,0.00965521,0.00539676,-0.00774158,-0.00112222,-0.00
 237796,-0.00020236,-0.00668945,-0.03144165,0.00198805,-0.00000166,0.00
 000091,0.00000396,-0.00000414,0.00001914,0.00001153,-0.00000052,0.0000
 0531,0.00001453,-0.00000141,0.00000741,0.00000997,-0.00000649,-0.00000
 516,0.00001549,-0.00006059,0.00003290,0.00006102,-0.00002154,0.0000521
 6,-0.00000465,0.00679070,0.03132071,-0.00008170,-0.00006598,-0.0000180
 6,0.00013247,0.00008859,0.00002721,-0.00009001,-0.00004188,0.00009533,
 -0.00005311,-0.00008801,-0.00001731,-0.00005760,-0.00023615,0.00031116
 ,-0.00193611,-0.00032919,-0.00117661,0.00003963,0.00013491,-0.00030659
 ,0.03018140,-0.00549515,-0.01825550,-0.00205025,-0.00053386,-0.0011776
 3,0.04745595,0.00224692,-0.04427532,-0.00000661,-0.00000914,-0.0000140
 9,0.00001458,-0.00000329,-0.00002750,-0.00000231,0.00000673,-0.0000221
 8,-0.00000743,0.00001149,-0.00002462,0.00001015,0.00003323,0.00000298,
 0.00005173,0.00003358,0.00001281,0.00007930,-0.00002152,0.00002303,-0.
 06275383,0.00135462,0.05675676,-0.00001298,-0.00002424,-0.00016775,0.0
 0007340,0.00009536,0.00018129,-0.00008566,-0.00003040,-0.00009358,-0.0
 0012184,-0.00006615,-0.00003572,-0.00024585,-0.00002268,-0.00026492,-0
 .00008790,0.00016001,-0.00020907,-0.00006246,0.00005249,-0.00010210,0.
 00509743,0.00018291,0.00014875,-0.00049487,0.00080305,0.00073584,-0.04
 801321,-0.05116445,-0.00686587,-0.00001602,-0.00001545,0.00000170,0.00
 001495,0.00001094,0.00002912,0.00000902,0.00000090,0.00002068,0.000038
 11,0.00002068,-0.00001942,0.00003545,-0.00000465,0.00001211,0.00013729
 ,-0.00012004,0.00037238,0.00004824,0.00001919,0.00024760,-0.01212881,-
 0.02143096,0.00153446,0.05090744,0.00003266,-0.00009990,-0.00014684,0.
 00003819,0.00015209,0.00013703,-0.00002101,-0.00011335,-0.00004980,-0.
 00010247,-0.00012263,0.00001424,0.00028303,-0.00036322,-0.00014053,0.0
 0034445,-0.00069976,0.00061290,0.00019779,-0.00030260,0.00011446,-0.00
 210903,-0.01853883,-0.02139367,-0.00014745,0.00092759,0.00062870,-0.04
 980018,-0.19976277,-0.01400957,-0.00001320,-0.00001158,-0.00000499,0.0
 0000664,0.00004614,-0.00000424,-0.00000070,0.00001723,0.00001379,-0.00
 000095,0.00002853,0.00000340,0.00000415,0.00002601,0.00004535,-0.00012
 859,0.00022756,0.00035387,-0.00000664,0.00016962,-0.00002182,-0.009246
 55,-0.00487388,0.00123404,0.06200145,0.24129333,-0.00012636,-0.0000908
 8,-0.00001108,0.00018809,0.00010918,0.00001765,-0.00011716,-0.00002634
 ,0.00013533,0.00008710,0.00000406,-0.00000804,-0.00017813,0.00018012,-
 0.00017787,0.00079362,0.00039836,-0.00122891,-0.00002927,-0.00022145,0
 .00005326,-0.00717381,-0.03025222,-0.00976624,0.00230613,-0.00115803,-
 0.00355302,-0.00591761,-0.01374884,-0.03660849,-0.00000916,-0.00001206
 ,-0.00002027,0.00001468,-0.00002162,-0.00003701,-0.00000357,0.00000300
 ,-0.00003380,-0.00001433,-0.00001000,-0.00001452,0.00001298,0.00005768
 ,-0.00001464,0.00031235,0.00027677,-0.00034942,0.00011569,-0.00009650,
 -0.00009550,0.00255796,0.00371888,0.00415970,0.00648759,0.02678697,0.0
 4736049,-0.00004988,-0.00001487,-0.00009136,0.00009619,0.00005709,0.00
 011186,-0.00008761,-0.00000896,-0.00003378,-0.00006837,-0.00004506,-0.
 00001538,-0.00012713,0.00006999,-0.00012398,0.00018205,0.00013768,0.00
 119739,0.00003309,-0.00013039,0.00003020,0.00556300,-0.00135571,-0.005
 06997,-0.00106940,0.00060484,0.00044897,-0.08154754,0.05037481,-0.0637
 1473,-0.00001137,-0.00001154,-0.00000189,0.00001910,-0.00000514,0.0000
 1708,0.00000709,-0.00000139,0.00000741,0.00001914,0.00001177,-0.000013
 89,0.00002234,0.00000516,0.00000456,0.00009879,-0.00003730,0.00009213,
 0.00009819,-0.00004477,0.00013977,-0.01910958,0.01307674,-0.01223025,0
 .00559708,-0.00048270,0.00149607,0.09049188,0.00006264,0.00001091,-0.0
 0004814,-0.00007598,-0.00000356,0.00004104,0.00005046,-0.00000652,-0.0
 0009536,0.00000646,0.00003760,-0.00000811,-0.00004445,0.00004994,-0.00
 020580,0.00078467,-0.00037057,-0.00144474,-0.00000097,0.00017334,-0.00
 002192,-0.00421856,0.01169808,-0.00040357,0.00091345,-0.00278415,0.000
 11232,0.05074599,-0.09173116,0.06616154,-0.00000101,0.00000273,0.00000
 896,-0.00001187,0.00001953,0.00002383,0.00000190,0.00000153,0.00002276
 ,0.00001462,0.00000175,0.00001622,-0.00000164,-0.00001902,0.00000422,-
 0.00001462,-0.00001593,0.00008919,-0.00006758,0.00003241,0.00003926,0.
 00479967,0.00239843,0.00144916,0.00927699,-0.01900928,0.01372421,-0.06
 234764,0.09967650,-0.00007365,-0.00007152,-0.00000950,0.00011928,0.000
 09109,0.00001271,-0.00006644,-0.00005673,0.00008587,0.00004303,-0.0000
 1398,-0.00001457,-0.00001365,0.00002962,-0.00000231,0.00074408,-0.0003
 0687,-0.00180520,-0.00005362,0.00015624,-0.00019411,-0.01290711,0.0069
 2688,-0.04059437,0.00011152,0.00185183,0.00160514,-0.06197221,0.064845
 28,-0.11537960,-0.00000406,-0.00000661,-0.00001350,0.00001231,0.000013
 22,-0.00003463,-0.00000142,0.00000965,-0.00002177,-0.00000810,0.000009
 39,-0.00000539,0.00000135,0.00003331,-0.00000550,0.00001595,0.00007427
 ,-0.00006606,0.00002346,0.00004004,-0.00009353,-0.00283300,0.00055834,
 0.00411264,-0.00112662,0.00578464,0.00156725,0.07774699,-0.07960163,0.
 15071154,-0.00001333,0.00028470,0.00023763,-0.00019164,-0.00039554,-0.
 00024556,0.00010708,0.00034343,-0.00010850,0.00002759,0.00048468,0.000
 22494,-0.00111073,0.00144467,0.00303432,0.02964251,0.01397989,0.025410
 73,-0.00330670,0.00454757,0.00270165,0.00084653,0.00263147,-0.00772541
 ,-0.00019912,-0.00150098,0.00133734,0.00001878,0.00268494,0.00061677,0
 .00003107,0.00003028,0.00003071,-0.00006191,-0.00007386,0.00007730,0.0
 0001377,-0.00005059,0.00000292,0.00002152,-0.00016594,0.00003584,0.000
 08636,-0.00019219,-0.00021516,-0.00013738,-0.00183677,-0.00149041,0.00
 052192,0.00015817,-0.00048191,0.00009365,-0.00032449,0.00001714,-0.000
 27953,-0.00124303,0.00013580,-0.00005901,0.00000088,0.00000879,0.06041
 844,0.00026472,0.00075965,0.00027965,-0.00075722,-0.00095491,-0.000309
 82,0.00035191,0.00085210,-0.00075946,-0.00038543,0.00080169,-0.0000226
 3,-0.00218739,0.00190071,0.00232326,0.02363761,-0.08173662,-0.03677792
 ,0.00813033,-0.00383268,0.00114712,0.00206659,0.00489344,-0.01621499,-
 0.00009718,-0.00306870,0.00322466,-0.00168308,-0.00052177,0.00443006,0
 .00007029,0.00006670,0.00011380,-0.00017741,-0.00014302,0.00032059,0.0
 0009208,-0.00015048,0.00014834,0.00041895,-0.00043886,0.00005889,0.000
 32823,-0.00060330,-0.00029163,0.00082170,-0.00146205,-0.00072656,-0.00
 106005,-0.00019951,-0.00011270,0.00115157,-0.00057305,0.00003628,0.001
 22315,-0.00132107,0.00049313,0.00001001,0.00020510,-0.00034365,0.03284
 210,0.31950509,0.00032277,0.00055222,0.00024353,-0.00071080,-0.0007278
 8,-0.00027861,0.00040005,0.00053861,-0.00057362,-0.00012011,0.00047377
 ,-0.00011468,-0.00011268,-0.00208491,0.00097598,0.02692044,-0.04991214
 ,-0.02064397,0.00504343,-0.00235546,0.00159180,0.00013984,0.00600730,-
 0.01350518,-0.00024524,-0.00203511,0.00260425,-0.00200490,0.00417492,0
 .00273916,0.00005806,0.00006276,0.00009115,-0.00013479,-0.00006709,0.0
 0022660,0.00005158,-0.00009351,0.00013277,0.00025282,-0.00027516,0.000
 09691,0.00013524,-0.00036524,-0.00008811,-0.00001068,-0.00034373,-0.00
 072412,-0.00054045,0.00016834,-0.00015703,0.00077946,-0.00084132,0.000
 00319,0.00050943,-0.00219100,-0.00025907,0.00005894,0.00012886,-0.0000
 2602,0.03721149,0.21535815,0.15525033,0.00002917,-0.00015734,-0.000072
 68,0.00008357,0.00021564,0.00002133,0.00007505,-0.00025986,0.00031348,
 -0.00070845,0.00007085,0.00024937,-0.03983190,0.01357262,0.01336935,-0
 .13206924,0.02898768,-0.01816449,0.00726568,0.00070032,0.00333291,-0.0
 1266821,0.02001532,0.00071081,0.00114656,0.00039427,-0.00240722,0.0007
 2269,-0.00126558,-0.00006486,-0.00000233,-0.00000689,-0.00001922,0.000
 02050,0.00004972,-0.00011700,-0.00003510,0.00002160,0.00000294,-0.0000
 5059,-0.00002733,-0.00001408,-0.00011354,0.00005365,0.00007078,-0.0006
 6998,0.00136802,0.00025201,-0.00330159,-0.00219515,0.00164298,0.000000
 99,0.00026316,-0.00024649,-0.00040964,0.00039373,-0.00093790,-0.000098
 20,0.00012640,0.00023338,-0.08646554,-0.06506412,-0.06800231,0.2670927
 9,-0.00033324,-0.00091731,-0.00037221,0.00094518,0.00116916,0.00042177
 ,-0.00050914,-0.00102323,0.00089801,0.00004315,-0.00119756,0.00003623,
 0.00972927,0.00493099,-0.00455902,0.02209850,-0.01199086,-0.00343456,0
 .00455035,-0.01789609,-0.01930202,0.01694048,-0.03190028,0.02625836,-0
 .00045891,0.00314256,-0.00161743,0.00207825,-0.00246183,-0.00416274,-0
 .00009009,-0.00008595,-0.00013948,0.00021678,0.00014180,-0.00035166,-0
 .00010132,0.00018358,-0.00016563,-0.00036709,0.00061633,-0.00015126,-0
 .00038675,0.00072012,0.00036953,-0.00135533,0.00157921,0.00072594,0.00
 012920,-0.00021816,0.00008660,-0.00139666,0.00106493,0.00019443,-0.000
 96878,0.00233126,-0.00011335,0.00013734,-0.00036810,-0.00002234,-0.053
 64106,-0.23397914,-0.16617045,0.00273845,0.28616827,-0.00026775,-0.000
 62517,-0.00029439,0.00070259,0.00082442,0.00034621,-0.00043190,-0.0006
 5544,0.00057336,0.00069245,-0.00073940,-0.00051026,0.01211298,-0.00022
 438,-0.00168124,-0.01973502,0.01115892,-0.02536041,0.00720229,-0.01897
 344,-0.01350327,-0.00848461,0.00157641,0.01985598,0.00035876,0.0055037
 1,-0.00408520,0.00107786,-0.00174741,-0.00495943,-0.00006706,-0.000066
 67,-0.00009638,0.00015074,0.00009420,-0.00022892,-0.00005611,0.0001204
 1,-0.00012247,-0.00027017,0.00040353,-0.00008255,-0.00019872,0.0004698
 2,0.00020897,-0.00024817,0.00042643,0.00072936,0.00068422,0.00006464,0
 .00010517,-0.00081626,0.00094558,-0.00018962,-0.00139608,0.00223328,-0
 .00111747,-0.00005707,0.00000930,0.00017230,-0.06080584,-0.17237976,-0
 .12758655,0.06984142,0.17157195,0.15783093\\0.,-0.00000002,-0.00000002
 ,0.,0.00000001,0.00000001,0.,0.,0.,0.,0.,0.,0.,0.,0.,0.00000001,-0.000
 00001,0.,0.,0.,0.,0.00000001,-0.00000009,0.00000008,-0.00000004,0.0000
 0013,0.00000004,-0.00000005,-0.00000004,0.00000010,0.,0.,0.,0.,0.,0.,0
 .,0.,0.,0.,0.,0.,0.,0.,0.,0.,0.,0.,0.,0.,0.,0.00000025,0.00000001,-0.0
 0000005,-0.00000005,-0.00000014,0.00000001,-0.00000012,0.00000014,-0.0
 0000018,0.,0.,0.,0.,0.,0.\\\@


 SUCCESS IS COUNTED SWEETEST
 BY THOSE WHO NE'ER SUCCEED.
 TO COMPREHEND NECTAR
 REQUIRES SOREST NEED.
           EMILY DICKINSON
 Job cpu time:       0 days  0 hours  1 minutes 42.4 seconds.
 File lengths (MBytes):  RWF=     57 Int=      0 D2E=      0 Chk=      2 Scr=      1
 Normal termination of Gaussian 09 at Thu Feb  4 08:43:06 2021.
