22
Properties=species:S:1:pos:R:3 energy=-15622.83267851396 pbc="F F F"
O       -2.07923800      -1.05750200       1.31844200
C       -2.54314100      -0.00170700       1.68417600
C       -1.91296200       1.34516500       1.40986900
C       -0.50745800       1.26449700       0.80929800
C       -0.52156300       0.69655100      -0.61514000
C        0.85710900       0.73101800      -1.25307000
H        1.61869200       0.17520500      -0.66644500
C        1.32563300       2.14782600      -1.56293900
O        1.73654000       2.85466200      -0.67007400
C        1.24770400       2.59892500      -2.98508900
H       -3.48788000       0.04144700       2.25322100
H       -2.58406200       1.92490900       0.74052600
H       -1.87532800       1.93050100       2.35319700
H       -0.03962900       2.27283500       0.81519300
H        0.13515900       0.63037400       1.45477500
H       -0.88460900      -0.35850900      -0.58524200
H       -1.24609400       1.23778500      -1.25536100
H        2.01658800       2.11192200      -3.60343100
H        0.27826400       2.35050100      -3.44663100
H        1.39910100       3.68480500      -3.07285100
O       -0.02577800       0.03512600      -3.29134700
O        0.85194300      -0.14127600      -2.51389300
