4
Properties=species:S:1:pos:R:3 energy=-5144.5296591749775 pbc="F F F"
C        2.10218800      -0.37015400      -2.06342600
O        1.77554200      -0.09752700      -1.00395100
O        0.87340900       0.65977100       1.93758000
H        1.15286100       0.42435400       1.02345000
