 Entering Gaussian System, Link 0=g09
 Initial command:
 /apps/applications/gaussian/G09.D01/2/default/g09/l1.exe "/nobackup/chmrsh/Scratch/Gau-61327.inp" -scrdir="/nobackup/chmrsh/Scratch/"
 Entering Link 1 = /apps/applications/gaussian/G09.D01/2/default/g09/l1.exe PID=     61328.
  
 Copyright (c) 1988,1990,1992,1993,1995,1998,2003,2009,2013,
            Gaussian, Inc.  All Rights Reserved.
  
 This is part of the Gaussian(R) 09 program.  It is based on
 the Gaussian(R) 03 system (copyright 2003, Gaussian, Inc.),
 the Gaussian(R) 98 system (copyright 1998, Gaussian, Inc.),
 the Gaussian(R) 94 system (copyright 1995, Gaussian, Inc.),
 the Gaussian 92(TM) system (copyright 1992, Gaussian, Inc.),
 the Gaussian 90(TM) system (copyright 1990, Gaussian, Inc.),
 the Gaussian 88(TM) system (copyright 1988, Gaussian, Inc.),
 the Gaussian 86(TM) system (copyright 1986, Carnegie Mellon
 University), and the Gaussian 82(TM) system (copyright 1983,
 Carnegie Mellon University). Gaussian is a federally registered
 trademark of Gaussian, Inc.
  
 This software contains proprietary and confidential information,
 including trade secrets, belonging to Gaussian, Inc.
  
 This software is provided under written license and may be
 used, copied, transmitted, or stored only in accord with that
 written license.
  
 The following legend is applicable only to US Government
 contracts under FAR:
  
                    RESTRICTED RIGHTS LEGEND
  
 Use, reproduction and disclosure by the US Government is
 subject to restrictions as set forth in subparagraphs (a)
 and (c) of the Commercial Computer Software - Restricted
 Rights clause in FAR 52.227-19.
  
 Gaussian, Inc.
 340 Quinnipiac St., Bldg. 40, Wallingford CT 06492
  
  
 ---------------------------------------------------------------
 Warning -- This program may not be used in any manner that
 competes with the business of Gaussian, Inc. or will provide
 assistance to any competitor of Gaussian, Inc.  The licensee
 of this program is prohibited from giving any competitor of
 Gaussian, Inc. access to this program.  By using this program,
 the user acknowledges that Gaussian, Inc. is engaged in the
 business of creating and licensing software in the field of
 computational chemistry and represents and warrants to the
 licensee that it is not a competitor of Gaussian, Inc. and that
 it will not use this program in any manner prohibited above.
 ---------------------------------------------------------------
  

 Cite this work as:
 Gaussian 09, Revision D.01,
 M. J. Frisch, G. W. Trucks, H. B. Schlegel, G. E. Scuseria, 
 M. A. Robb, J. R. Cheeseman, G. Scalmani, V. Barone, B. Mennucci, 
 G. A. Petersson, H. Nakatsuji, M. Caricato, X. Li, H. P. Hratchian, 
 A. F. Izmaylov, J. Bloino, G. Zheng, J. L. Sonnenberg, M. Hada, 
 M. Ehara, K. Toyota, R. Fukuda, J. Hasegawa, M. Ishida, T. Nakajima, 
 Y. Honda, O. Kitao, H. Nakai, T. Vreven, J. A. Montgomery, Jr., 
 J. E. Peralta, F. Ogliaro, M. Bearpark, J. J. Heyd, E. Brothers, 
 K. N. Kudin, V. N. Staroverov, T. Keith, R. Kobayashi, J. Normand, 
 K. Raghavachari, A. Rendell, J. C. Burant, S. S. Iyengar, J. Tomasi, 
 M. Cossi, N. Rega, J. M. Millam, M. Klene, J. E. Knox, J. B. Cross, 
 V. Bakken, C. Adamo, J. Jaramillo, R. Gomperts, R. E. Stratmann, 
 O. Yazyev, A. J. Austin, R. Cammi, C. Pomelli, J. W. Ochterski, 
 R. L. Martin, K. Morokuma, V. G. Zakrzewski, G. A. Voth, 
 P. Salvador, J. J. Dannenberg, S. Dapprich, A. D. Daniels, 
 O. Farkas, J. B. Foresman, J. V. Ortiz, J. Cioslowski, 
 and D. J. Fox, Gaussian, Inc., Wallingford CT, 2013.
 
 ******************************************
 Gaussian 09:  ES64L-G09RevD.01 24-Apr-2013
                18-Feb-2021 
 ******************************************
 %nprocshared=1
 Will use up to    1 processors via shared memory.
 ----------------------------------------------------------------------
 #P pm6 scf=qc opt(calcall, ts, noeigentest, cartesian,maxcycle=100) No
 Symm
 ----------------------------------------------------------------------
 1/5=1,6=100,10=4,11=1,14=-1,18=10,26=1,38=1/1,3;
 2/12=2,15=1,17=6,18=5,29=2,40=1/2;
 3/5=2,16=1,25=1,41=3900000,71=2,140=1/1,2,3;
 4/35=1/1;
 5/5=2,8=3,35=1,38=5/8;
 8/6=4,10=90,11=11/1;
 11/6=1,8=1,9=11,15=111,16=1,31=1/1,2,10;
 10/6=1,31=1/2;
 6/7=2,8=2,9=2,10=2,18=1,28=1/1;
 7/7=1,10=1,25=1,30=1/1,2,3,16;
 1/5=1,6=100,10=4,11=1,14=-1,18=10,26=1/3(3);
 2/15=1,29=1/2;
 7/7=1,8=1,9=1,25=1,30=1,44=-1/16;
 99/12=1/99;
 2/15=1,29=1/2;
 3/5=2,16=1,25=1,41=3900000,71=2,135=20,140=1/1,2,3;
 4/5=5,16=3,35=1/1;
 5/5=2,8=3,35=1,38=5/8;
 8/6=4,10=90,11=11/1;
 11/6=1,8=1,9=11,15=111,16=1,31=1/1,2,10;
 10/6=1,31=1/2;
 7/7=1,10=1,25=1,30=1/1,2,3,16;
 1/5=1,6=100,10=4,11=1,14=-1,18=10,26=1/3(-8);
 2/15=1,29=1/2;
 6/7=2,8=2,9=2,10=2,18=1,19=2,28=1/1;
 7/7=1,8=1,9=1,25=1,30=1,44=-1/16;
 99/12=1/99;
 Leave Link    1 at Thu Feb 18 21:41:00 2021, MaxMem=           0 cpu:         0.0
 (Enter /apps/applications/gaussian/G09.D01/2/default/g09/l101.exe)
 ------------------------------
 Gaussian input prepared by ASE
 ------------------------------
 Symbolic Z-matrix:
 Charge =  0 Multiplicity = 2
 O                    -0.63811   0.34799   3.16174 
 C                    -0.65345   0.86683   2.1176 
 C                    -0.71216   1.84885   1.12467 
 C                     0.53259   1.96405   0.26234 
 C                     1.2931    0.62233   0.19364 
 C                     0.3376   -0.5797    0.06589 
 H                     0.77446  -1.52722   0.44207 
 C                    -0.1995   -0.69182  -1.37957 
 O                    -1.04935   0.08506  -1.75413 
 C                     0.37428  -1.78121  -2.21966 
 H                    -1.93352  -2.04557   1.71139 
 H                    -1.3795    0.77648   0.27573 
 H                    -1.30333   2.74309   1.26496 
 H                     0.23316   2.28353  -0.75851 
 H                     1.19842   2.75609   0.65684 
 H                     2.00949   0.6358   -0.64891 
 H                     1.91354   0.49648   1.10276 
 H                     1.46704  -1.84141  -2.16412 
 H                    -0.02355  -2.7582   -1.88959 
 H                     0.09235  -1.66959  -3.278 
 O                    -1.47859  -2.19439   0.87093 
 O                    -0.85496  -0.33748   0.84193 
 
 NAtoms=     22 NQM=       22 NQMF=       0 NMMI=      0 NMMIF=      0
                NMic=       0 NMicF=      0.
                    Isotopes and Nuclear Properties:
 (Nuclear quadrupole moments (NQMom) in fm**2, nuclear magnetic moments (NMagM)
  in nuclear magnetons)

  Atom         1           2           3           4           5           6           7           8           9          10
 IAtWgt=          16          12          12          12          12          12           1          12          16          12
 AtmWgt=  15.9949146  12.0000000  12.0000000  12.0000000  12.0000000  12.0000000   1.0078250  12.0000000  15.9949146  12.0000000
 NucSpn=           0           0           0           0           0           0           1           0           0           0
 AtZEff=   0.0000000   0.0000000   0.0000000   0.0000000   0.0000000   0.0000000   0.0000000   0.0000000   0.0000000   0.0000000
 NQMom=    0.0000000   0.0000000   0.0000000   0.0000000   0.0000000   0.0000000   0.0000000   0.0000000   0.0000000   0.0000000
 NMagM=    0.0000000   0.0000000   0.0000000   0.0000000   0.0000000   0.0000000   2.7928460   0.0000000   0.0000000   0.0000000
 AtZNuc=   8.0000000   6.0000000   6.0000000   6.0000000   6.0000000   6.0000000   1.0000000   6.0000000   8.0000000   6.0000000

  Atom        11          12          13          14          15          16          17          18          19          20
 IAtWgt=           1           1           1           1           1           1           1           1           1           1
 AtmWgt=   1.0078250   1.0078250   1.0078250   1.0078250   1.0078250   1.0078250   1.0078250   1.0078250   1.0078250   1.0078250
 NucSpn=           1           1           1           1           1           1           1           1           1           1
 AtZEff=   0.0000000   0.0000000   0.0000000   0.0000000   0.0000000   0.0000000   0.0000000   0.0000000   0.0000000   0.0000000
 NQMom=    0.0000000   0.0000000   0.0000000   0.0000000   0.0000000   0.0000000   0.0000000   0.0000000   0.0000000   0.0000000
 NMagM=    2.7928460   2.7928460   2.7928460   2.7928460   2.7928460   2.7928460   2.7928460   2.7928460   2.7928460   2.7928460
 AtZNuc=   1.0000000   1.0000000   1.0000000   1.0000000   1.0000000   1.0000000   1.0000000   1.0000000   1.0000000   1.0000000

  Atom        21          22
 IAtWgt=          16          16
 AtmWgt=  15.9949146  15.9949146
 NucSpn=           0           0
 AtZEff=   0.0000000   0.0000000
 NQMom=    0.0000000   0.0000000
 NMagM=    0.0000000   0.0000000
 AtZNuc=   8.0000000   8.0000000
 Leave Link  101 at Thu Feb 18 21:41:00 2021, MaxMem=    33554432 cpu:         0.1
 (Enter /apps/applications/gaussian/G09.D01/2/default/g09/l103.exe)

 GradGradGradGradGradGradGradGradGradGradGradGradGradGradGradGradGradGrad
 Berny optimization.
 Initialization pass.
 No Z-matrix variables, so optimization will use Cartesian coordinates.
 Trust Radius=3.00D-01 FncErr=1.00D-07 GrdErr=1.00D-07
 Number of steps in this run=    100 maximum allowed number of steps=    132.
 Search for a saddle point of order  1.
 GradGradGradGradGradGradGradGradGradGradGradGradGradGradGradGradGradGrad

 Leave Link  103 at Thu Feb 18 21:41:00 2021, MaxMem=    33554432 cpu:         0.0
 (Enter /apps/applications/gaussian/G09.D01/2/default/g09/l202.exe)
 ---------------------------------------------------------------------------------------------------
                            Z-MATRIX (ANGSTROMS AND DEGREES)
   CD    Cent   Atom    N1       Length/X        N2       Alpha/Y        N3        Beta/Z          J
 ---------------------------------------------------------------------------------------------------
      1      1  O        0  -0.638111          0.347987          3.161744
      2      2  C        0  -0.653454          0.866831          2.117597
      3      3  C        0  -0.712161          1.848849          1.124673
      4      4  C        0   0.532588          1.964048          0.262341
      5      5  C        0   1.293098          0.622327          0.193637
      6      6  C        0   0.337602         -0.579697          0.065892
      7      7  H        0   0.774460         -1.527217          0.442071
      8      8  C        0  -0.199504         -0.691822         -1.379567
      9      9  O        0  -1.049351          0.085056         -1.754132
     10     10  C        0   0.374279         -1.781208         -2.219663
     11     11  H        0  -1.933523         -2.045568          1.711387
     12     12  H        0  -1.379495          0.776482          0.275734
     13     13  H        0  -1.303334          2.743087          1.264958
     14     14  H        0   0.233159          2.283530         -0.758511
     15     15  H        0   1.198424          2.756086          0.656835
     16     16  H        0   2.009495          0.635799         -0.648907
     17     17  H        0   1.913536          0.496480          1.102756
     18     18  H        0   1.467044         -1.841405         -2.164118
     19     19  H        0  -0.023548         -2.758198         -1.889585
     20     20  H        0   0.092348         -1.669585         -3.278000
     21     21  O        0  -1.478591         -2.194386          0.870927
     22     22  O        0  -0.854959         -0.337477          0.841929
 ---------------------------------------------------------------------------------------------------
                         Z-Matrix orientation:                         
 ---------------------------------------------------------------------
 Center     Atomic      Atomic             Coordinates (Angstroms)
 Number     Number       Type             X           Y           Z
 ---------------------------------------------------------------------
      1          8           0       -0.638111    0.347987    3.161744
      2          6           0       -0.653454    0.866831    2.117597
      3          6           0       -0.712161    1.848849    1.124673
      4          6           0        0.532588    1.964048    0.262341
      5          6           0        1.293098    0.622327    0.193637
      6          6           0        0.337602   -0.579697    0.065892
      7          1           0        0.774460   -1.527217    0.442071
      8          6           0       -0.199504   -0.691822   -1.379567
      9          8           0       -1.049351    0.085056   -1.754132
     10          6           0        0.374279   -1.781208   -2.219663
     11          1           0       -1.933523   -2.045568    1.711387
     12          1           0       -1.379495    0.776482    0.275734
     13          1           0       -1.303334    2.743087    1.264958
     14          1           0        0.233159    2.283530   -0.758511
     15          1           0        1.198424    2.756086    0.656835
     16          1           0        2.009495    0.635799   -0.648907
     17          1           0        1.913536    0.496480    1.102756
     18          1           0        1.467044   -1.841405   -2.164118
     19          1           0       -0.023548   -2.758198   -1.889585
     20          1           0        0.092348   -1.669585   -3.278000
     21          8           0       -1.478591   -2.194386    0.870927
     22          8           0       -0.854959   -0.337477    0.841929
 ---------------------------------------------------------------------
                    Distance matrix (angstroms):
                    1          2          3          4          5
     1  O    0.000000
     2  C    1.166052   0.000000
     3  C    2.531349   1.397750   0.000000
     4  C    3.519762   2.460194   1.518647   0.000000
     5  C    3.551688   2.747812   2.528290   1.543798   0.000000
     6  C    3.375931   2.698912   2.849711   2.558760   1.540829
     7  H    3.592822   3.252352   3.751508   3.504245   2.225139
     8  C    4.679432   3.855597   3.604032   3.207096   2.535709
     9  O    4.940049   3.969659   3.392961   3.177940   3.093466
    10  C    5.875198   5.184609   5.053934   4.495815   3.527779
    11  H    3.083948   3.207125   4.123402   4.925288   4.453348
    12  H    3.010367   1.981857   1.521842   2.250901   2.678294
    13  H    3.126791   2.160943   1.081123   2.232208   3.519490
    14  H    4.458008   3.326427   2.151502   1.110795   2.188527
    15  H    3.930187   3.022013   2.166169   1.107379   2.185507
    16  H    4.649055   3.846845   3.467634   2.185377   1.106023
    17  H    3.282131   2.785049   2.953585   2.183362   1.107826
    18  H    6.131062   5.492189   5.402134   4.608946   3.414563
    19  H    5.961711   5.440140   5.548407   5.219165   4.183458
    20  H    6.787818   6.008502   5.692991   5.092260   4.329772
    21  O    3.523905   3.406771   4.123051   4.659162   4.009346
    22  O    2.428667   1.765868   2.209153   2.749223   2.440421
                    6          7          8          9         10
     6  C    0.000000
     7  H    1.109121   0.000000
     8  C    1.546094   2.228196   0.000000
     9  O    2.382860   3.278570   1.210817   0.000000
    10  C    2.582390   2.703606   1.490554   2.392986   0.000000
    11  H    3.164560   3.035296   3.793870   4.163069   4.566069
    12  H    2.198108   3.158199   2.507652   2.169659   3.980516
    13  H    3.895038   4.819737   4.473316   4.030452   5.951992
    14  H    2.981378   4.031897   3.070118   2.733017   4.321687
    15  H    3.495379   4.309589   4.241368   4.242600   5.435117
    16  H    2.187143   2.719225   2.678828   3.298694   3.314080
    17  H    2.171822   2.414404   3.469716   4.136397   4.312267
    18  H    2.800088   2.714886   2.171277   3.195557   1.095830
    19  H    2.949608   2.754769   2.135647   3.025676   1.105318
    20  H    3.525566   3.784769   2.155283   2.589289   1.100919
    21  O    2.560051   2.388571   2.993073   3.503004   3.627064
    22  O    1.443297   2.056787   2.343123   2.637396   3.601212
                   11         12         13         14         15
    11  H    0.000000
    12  H    3.214345   0.000000
    13  H    4.850531   2.202703   0.000000
    14  H    5.434703   2.437521   2.581943   0.000000
    15  H    5.828984   3.272573   2.574641   1.777147   0.000000
    16  H    5.320536   3.515680   4.367880   2.425366   2.618858
    17  H    4.651054   3.406820   3.927061   3.079209   2.411649
    18  H    5.159949   4.572635   6.360120   4.529160   5.400635
    19  H    4.137976   4.361326   6.469400   5.173417   6.195547
    20  H    5.398101   4.558354   6.485219   4.689858   6.024358
    21  O    0.967204   3.031523   4.956270   5.063288   5.631999
    22  O    2.199280   1.355219   3.141635   3.258080   3.717630
                   16         17         18         19         20
    16  H    0.000000
    17  H    1.759813   0.000000
    18  H    2.954092   4.041971   0.000000
    19  H    4.146295   4.826938   1.771367   0.000000
    20  H    3.987779   5.215322   1.777651   1.768108   0.000000
    21  O    4.742002   4.336015   4.244156   3.171035   4.467310
    22  O    3.372678   2.903115   4.085317   3.743301   4.432349
                   21         22
    21  O    0.000000
    22  O    1.959048   0.000000
 Symmetry turned off by external request.
 Stoichiometry    C7H11O4(2)
 Framework group  C1[X(C7H11O4)]
 Deg. of freedom    60
 Full point group                 C1      NOp   1
 Rotational constants (GHZ):      1.5852914      0.9322589      0.7201973
 Leave Link  202 at Thu Feb 18 21:41:00 2021, MaxMem=    33554432 cpu:         0.0
 (Enter /apps/applications/gaussian/G09.D01/2/default/g09/l301.exe)
 Standard basis: VSTO-6G (5D, 7F)
 Ernie: Thresh=  0.10000D-02 Tol=  0.10000D-05 Strict=F.
  NNHCO=     0 NNPyr=     0 NCTC=     0               EPep=         0.000000000
    EC=       322.320063024  ECS=         4.316966084   EG=         0.357233323
   EHC=         0.001611164  EAt=       -76.388488019  AtH=         3.199295150
 EPDDG=         0.000000000  ECC=       326.995873595 EAtT=        79.587783169
    55 basis functions,   330 primitive gaussians,    55 cartesian basis functions
    32 alpha electrons       31 beta electrons
       nuclear repulsion energy       406.5836567638 Hartrees.
 IExCor=    0 DFT=F Ex=HF Corr=None ExCW=0 ScaHFX=  1.000000
 ScaDFX=  1.000000  1.000000  1.000000  1.000000 ScalE2=  1.000000  1.000000
 IRadAn=      0 IRanWt=     -1 IRanGd=            0 ICorTp=0 IEmpDi=  4
 Integral buffers will be    131072 words long.
 Regular integral format.
 Two-electron integral symmetry is turned off.
 Leave Link  301 at Thu Feb 18 21:41:00 2021, MaxMem=    33554432 cpu:         0.0
 (Enter /apps/applications/gaussian/G09.D01/2/default/g09/l302.exe)
 Do NDO integrals.
 NPDir=0 NMtPBC=     1 NCelOv=     1 NCel=       1 NClECP=     1 NCelD=      1
         NCelK=      1 NCelE2=     1 NClLst=     1 CellRange=     0.0.
 One-electron integrals computed using PRISM.
 NBasis=    55 RedAO= F EigKep=  0.00D+00  NBF=    55
 NBsUse=    55 1.00D-04 EigRej=  0.00D+00 NBFU=    55
 Leave Link  302 at Thu Feb 18 21:41:00 2021, MaxMem=    33554432 cpu:         0.1
 (Enter /apps/applications/gaussian/G09.D01/2/default/g09/l303.exe)
 DipDrv:  MaxL=1.
 Leave Link  303 at Thu Feb 18 21:41:00 2021, MaxMem=    33554432 cpu:         0.0
 (Enter /apps/applications/gaussian/G09.D01/2/default/g09/l401.exe)
 Simple Huckel Guess.
 JPrj=0 DoOrth=F DoCkMO=F.
 Initial guess <Sx>= 0.0000 <Sy>= 0.0000 <Sz>= 0.5000 <S**2>= 0.7500 S= 0.5000
 Leave Link  401 at Thu Feb 18 21:41:00 2021, MaxMem=    33554432 cpu:         0.0
 (Enter /apps/applications/gaussian/G09.D01/2/default/g09/l508.exe)
 Direct SCF.
 Tight linear equation convergence will be used.
 UPM6 wavefunction.
 Quadratic Convergence SCF Method.
 Line search only if initial step raises energy.
 Two-electron integral symmetry not used.
 ReadGW:  IGet=1 IStart=       59293 Next=       59293 LGW=           0.
 Keep J ints in memory in canonical form, NReq=909807.
 FoFCou: FMM=F IPFlag=           0 FMFlag=           0 FMFlg1=           0
         NFxFlg=           0 DoJE=F BraDBF=F KetDBF=F FulRan=T
         wScrn=  0.000000 ICntrl=     600 IOpCl=  2 I1Cent=           0 NGrid=           0
         NMat0=    1 NMatS0=    121 NMatT0=    0 NMatD0=    1 NMtDS0=    0 NMtDT0=    0
 Symmetry not used in FoFCou.
 Iteration   1 EE= 0.532869371275979                                    Grad=5.143D-01 Max rot=    4.5796 deg.
 Gradient too large for Newton-Raphson -- use scaled steepest descent instead.
 Alpha Gap=     0.439 HL deriv= 3.39D-02
  Beta Gap=     0.242 HL deriv= 7.66D-02
     ILin= 1 X=0.000D+00 Y= 5.328693712760D-01 DE= 0.00D+00 F= -7.04D-01
     ILin= 2 X=3.000D-01 Y= 3.395643391432D-01 DE=-1.93D-01 F= -5.83D-01
     ILin= 3 X=4.000D-01 Y= 2.834797395337D-01 DE=-2.49D-01 F= -5.39D-01
     ILin= 4 X=6.000D-01 Y= 1.847880254377D-01 DE=-3.48D-01 F= -4.47D-01
     ILin= 5 X=8.000D-01 Y= 1.050990416971D-01 DE=-4.28D-01 F= -3.49D-01
     ILin= 6 X=1.200D+00 Y= 7.384152299949D-03 DE=-5.25D-01 F= -1.36D-01
     ILin= 7 X=1.700D+00 Y= 1.099311798100D-02 DE=-5.22D-01 F=  1.54D-01
     An  expanding polynomial of degree  7 produced  1.4391
 Iteration   2 EE=-0.901391082572900E-02 Delta-E=       -0.541883282102 Grad=1.884D-01 Max rot=    2.4981 deg.
 Gradient too large for Newton-Raphson -- use scaled steepest descent instead.
 Alpha Gap=     0.391 HL deriv= 2.35D-03
  Beta Gap=     0.326 HL deriv= 6.46D-02
     ILin= 1 X=0.000D+00 Y=-9.013910825729D-03 DE= 0.00D+00 F= -9.45D-02
     ILin= 2 X=7.000D-01 Y=-5.863624088585D-02 DE=-4.96D-02 F= -4.73D-02
     ILin= 3 X=1.100D+00 Y=-7.214919836076D-02 DE=-6.31D-02 F= -2.03D-02
     ILin= 4 X=1.800D+00 Y=-7.001276965804D-02 DE=-6.10D-02 F=  2.63D-02
     An  expanding polynomial of degree  4 produced  1.4040
 Iteration   3 EE=-0.752355759175316E-01 Delta-E=       -0.066221665092 Grad=9.078D-02 Max rot=    1.7197 deg.
 Gradient too large for Newton-Raphson -- use scaled steepest descent instead.
 Alpha Gap=     0.413 HL deriv= 9.60D-05
  Beta Gap=     0.333 HL deriv= 4.66D-02
     ILin= 1 X=0.000D+00 Y=-7.523557591753D-02 DE= 0.00D+00 F= -2.84D-02
     ILin= 2 X=1.400D+00 Y=-9.578214492421D-02 DE=-2.05D-02 F= -5.01D-04
     Reject lnstep minimum 1.409D+00 FVal=-9.578383114082D-02 Lims=  0.00D+00  1.40D+00
     ILin= 3 X=2.300D+00 Y=-8.773004349894D-02 DE=-1.25D-02 F=  1.85D-02
     An  expanding polynomial of degree  3 produced  1.4145
     Minimum is close to point  2 DX=  1.45D-02 DF= -2.15D-06 DXR=  1.02D-02 DFR=  1.04D-04 which will be used.
 Iteration   4 EE=-0.957821449242147E-01 Delta-E=       -0.020546569007 Grad=6.089D-02 Max rot=    0.7468 deg.
 Gradient too large for Newton-Raphson -- use scaled steepest descent instead.
 Alpha Gap=     0.383 HL deriv= 1.63D-05
  Beta Gap=     0.347 HL deriv= 2.28D-02
     ILin= 1 X=0.000D+00 Y=-9.578214492421D-02 DE= 0.00D+00 F= -1.14D-02
     ILin= 2 X=1.400D+00 Y=-1.049090319009D-01 DE=-9.13D-03 F= -1.60D-03
     Reject lnstep minimum 1.467D+00 FVal=-1.049481588429D-01 Lims=  0.00D+00  1.40D+00
     ILin= 3 X=2.600D+00 Y=-1.017377141845D-01 DE=-5.96D-03 F=  6.89D-03
     An  expanding polynomial of degree  3 produced  1.6250
 Iteration   5 EE=-0.105090027484323     Delta-E=       -0.009307882560 Grad=4.409D-02 Max rot=    0.8754 deg.
 Gradient too large for Newton-Raphson -- use scaled steepest descent instead.
 Alpha Gap=     0.387 HL deriv= 1.56D-04
  Beta Gap=     0.352 HL deriv= 1.73D-02
     ILin= 1 X=0.000D+00 Y=-1.050900274843D-01 DE= 0.00D+00 F= -6.36D-03
     ILin= 2 X=1.500D+00 Y=-1.096177365206D-01 DE=-4.53D-03 F=  3.52D-04
     Accept linear search using points  1 and  2.
     An  expanding polynomial of degree  2 produced  1.4708
     Minimum is close to point  2 DX= -2.92D-02 DF= -3.41D-06 DXR=  1.99D-02 DFR=  7.53D-04 which will be used.
 Iteration   6 EE=-0.109617736520647     Delta-E=       -0.004527709036 Grad=3.186D-02 Max rot=    0.4124 deg.
 Gradient too large for Newton-Raphson -- use scaled steepest descent instead.
 Alpha Gap=     0.372 HL deriv= 7.50D-04
  Beta Gap=     0.353 HL deriv= 7.53D-03
     ILin= 1 X=0.000D+00 Y=-1.096177365206D-01 DE= 0.00D+00 F= -2.99D-03
     ILin= 2 X=1.500D+00 Y=-1.117624413275D-01 DE=-2.14D-03 F=  1.30D-04
     Accept linear search using points  1 and  2.
     An  expanding polynomial of degree  2 produced  1.4770
     Minimum is close to point  2 DX= -2.30D-02 DF= -9.96D-07 DXR=  1.56D-02 DFR=  4.64D-04 which will be used.
 Iteration   7 EE=-0.111762441327471     Delta-E=       -0.002144704807 Grad=2.085D-02 Max rot=    0.3923 deg.
 Gradient too large for Newton-Raphson -- use scaled steepest descent instead.
 Alpha Gap=     0.375 HL deriv= 2.24D-04
  Beta Gap=     0.355 HL deriv= 6.97D-03
     ILin= 1 X=0.000D+00 Y=-1.117624413275D-01 DE= 0.00D+00 F= -1.38D-03
     ILin= 2 X=1.500D+00 Y=-1.127813789680D-01 DE=-1.02D-03 F=  2.80D-05
     Accept linear search using points  1 and  2.
     An  expanding polynomial of degree  2 produced  1.4897
     Minimum is close to point  2 DX= -1.03D-02 DF= -9.59D-08 DXR=  6.93D-03 DFR=  9.41D-05 which will be used.
 Iteration   8 EE=-0.112781378967952     Delta-E=       -0.001018937640 Grad=1.468D-02 Max rot=    0.1915 deg.
 Gradient too large for Newton-Raphson -- use scaled steepest descent instead.
 Alpha Gap=     0.368 HL deriv= 6.65D-04
  Beta Gap=     0.355 HL deriv= 3.32D-03
     ILin= 1 X=0.000D+00 Y=-1.127813789680D-01 DE= 0.00D+00 F= -6.40D-04
     ILin= 2 X=1.500D+00 Y=-1.132645064552D-01 DE=-4.83D-04 F= -4.52D-06
     Reject lnstep minimum 1.503D+00 FVal=-1.132645117214D-01 Lims=  0.00D+00  1.50D+00
     ILin= 3 X=3.000D+00 Y=-1.127951329095D-01 DE=-1.38D-05 F=  6.30D-04
     An  expanding polynomial of degree  3 produced  1.5108
     Minimum is close to point  2 DX=  1.08D-02 DF= -2.48D-08 DXR=  7.17D-03 DFR=  5.14D-05 which will be used.
 Iteration   9 EE=-0.113264506455153     Delta-E=       -0.000483127487 Grad=9.700D-03 Max rot=    0.1654 deg.
 QCNR:  CnvC1=3.85D-09 CnvC2=3.85D-08
 LinEq1:  Iter=  0 NonCon=     1 RMS=5.32D-04 Max=1.65D-02 NDo=     1
 AX will form     1 AO Fock derivatives at one time.
 LinEq1:  Iter=  1 NonCon=     1 RMS=1.72D-04 Max=1.62D-03 NDo=     1
 LinEq1:  Iter=  2 NonCon=     1 RMS=2.40D-05 Max=3.31D-04 NDo=     1
 LinEq1:  Iter=  3 NonCon=     1 RMS=5.93D-06 Max=8.13D-05 NDo=     1
 LinEq1:  Iter=  4 NonCon=     1 RMS=1.32D-06 Max=2.55D-05 NDo=     1
 LinEq1:  Iter=  5 NonCon=     1 RMS=3.81D-07 Max=6.71D-06 NDo=     1
 LinEq1:  Iter=  6 NonCon=     1 RMS=9.37D-08 Max=1.05D-06 NDo=     1
 LinEq1:  Iter=  7 NonCon=     1 RMS=2.04D-08 Max=2.21D-07 NDo=     1
 LinEq1:  Iter=  8 NonCon=     1 RMS=3.81D-09 Max=3.92D-08 NDo=     1
 LinEq1:  Iter=  9 NonCon=     0 RMS=6.87D-10 Max=8.34D-09 NDo=     1
 Linear equations converged to 3.847D-09 3.847D-08 after     9 iterations.
 Angle between quadratic step and gradient=  46.29 degrees.
     ILin= 1 X=0.000D+00 Y=-1.132645064552D-01 DE= 0.00D+00 F= -9.94D-04
     ILin= 2 X=1.000D+00 Y=-1.137525670956D-01 DE=-4.88D-04 F=  2.61D-05
     Accept linear search using points  1 and  2.
     An  expanding polynomial of degree  2 produced  0.9750
     Minimum is close to point  2 DX= -2.50D-02 DF= -3.26D-07 DXR=  2.56D-02 DFR=  6.67D-04 which will be used.
 Iteration  10 EE=-0.113752567095617     Delta-E=       -0.000488060640 Grad=3.355D-04 Max rot=    0.0084 deg.
 QCNR:  CnvC1=3.36D-09 CnvC2=3.36D-08
 LinEq1:  Iter=  0 NonCon=     1 RMS=1.79D-05 Max=4.67D-04 NDo=     1
 LinEq1:  Iter=  1 NonCon=     1 RMS=3.86D-06 Max=4.96D-05 NDo=     1
 LinEq1:  Iter=  2 NonCon=     1 RMS=9.83D-07 Max=1.00D-05 NDo=     1
 LinEq1:  Iter=  3 NonCon=     1 RMS=2.21D-07 Max=2.73D-06 NDo=     1
 LinEq1:  Iter=  4 NonCon=     1 RMS=4.83D-08 Max=8.29D-07 NDo=     1
 LinEq1:  Iter=  5 NonCon=     1 RMS=1.21D-08 Max=2.41D-07 NDo=     1
 LinEq1:  Iter=  6 NonCon=     1 RMS=2.77D-09 Max=3.81D-08 NDo=     1
 LinEq1:  Iter=  7 NonCon=     0 RMS=6.14D-10 Max=7.56D-09 NDo=     1
 Linear equations converged to 3.355D-09 3.355D-08 after     7 iterations.
 Angle between quadratic step and gradient=  36.28 degrees.
     ILin= 1 X=0.000D+00 Y=-1.137525670956D-01 DE= 0.00D+00 F= -1.28D-06
     ILin= 2 X=1.000D+00 Y=-1.137532081024D-01 DE=-6.41D-07 F= -9.55D-10
     Reject lnstep minimum 1.001D+00 FVal=-1.137532081027D-01 Lims=  0.00D+00  1.00D+00
     ILin= 3 X=2.000D+00 Y=-1.137525702924D-01 DE=-3.20D-09 F=  1.28D-06
     An  expanding polynomial of degree  3 produced  1.0012
     Minimum is close to point  2 DX=  1.25D-03 DF= -9.99D-13 DXR=  1.25D-03 DFR=  1.56D-06 which will be used.
 Iteration  11 EE=-0.113753208102366     Delta-E=       -0.000000641007 Grad=5.714D-06 Max rot=    0.0001 deg.
 QCNR:  CnvC1=5.71D-11 CnvC2=5.71D-10
 LinEq1:  Iter=  0 NonCon=     1 RMS=2.22D-07 Max=2.60D-06 NDo=     1
 LinEq1:  Iter=  1 NonCon=     1 RMS=6.93D-08 Max=8.94D-07 NDo=     1
 LinEq1:  Iter=  2 NonCon=     1 RMS=1.58D-08 Max=2.46D-07 NDo=     1
 LinEq1:  Iter=  3 NonCon=     1 RMS=4.10D-09 Max=7.78D-08 NDo=     1
 LinEq1:  Iter=  4 NonCon=     1 RMS=9.93D-10 Max=1.46D-08 NDo=     1
 LinEq1:  Iter=  5 NonCon=     1 RMS=2.24D-10 Max=3.06D-09 NDo=     1
 LinEq1:  Iter=  6 NonCon=     0 RMS=4.69D-11 Max=5.31D-10 NDo=     1
 Linear equations converged to 5.714D-11 5.714D-10 after     6 iterations.
 Angle between quadratic step and gradient=  56.36 degrees.
     ILin= 1 X=0.000D+00 Y=-1.137532081024D-01 DE= 0.00D+00 F= -2.06D-10
     ILin= 2 X=1.000D+00 Y=-1.137532082054D-01 DE=-1.03D-10
 Iteration  12 EE=-0.113753208205367     Delta-E=       -0.000000000103 Grad=2.142D-07 Max rot=    0.0000 deg.
 Rotation gradient small -- convergence achieved.
 SCF Done:  E(UPM6) = -0.113753208205     a.u. after   12 cycles
            Convg  =    0.2142D-06                    48 Fock formations.
              S**2 =  0.7623                  -V/T =  0.9970
 <Sx>= 0.0000 <Sy>= 0.0000 <Sz>= 0.5000 <S**2>= 0.7623 S= 0.5061
 <L.S>= 0.000000000000E+00
 Annihilation of the first spin contaminant:
 S**2 before annihilation     0.7623,   after     0.7501
 Leave Link  508 at Thu Feb 18 21:41:01 2021, MaxMem=    33554432 cpu:         0.2
 (Enter /apps/applications/gaussian/G09.D01/2/default/g09/l801.exe)
 Range of M.O.s used for correlation:     1    55
 NBasis=    55 NAE=    32 NBE=    31 NFC=     0 NFV=     0
 NROrb=     55 NOA=    32 NOB=    31 NVA=    23 NVB=    24
 Leave Link  801 at Thu Feb 18 21:41:01 2021, MaxMem=    33554432 cpu:         0.0
 (Enter /apps/applications/gaussian/G09.D01/2/default/g09/l1101.exe)
 Using compressed storage, NAtomX=    22.
 Will process     23 centers per pass.
 Leave Link 1101 at Thu Feb 18 21:41:01 2021, MaxMem=    33554432 cpu:         0.1
 (Enter /apps/applications/gaussian/G09.D01/2/default/g09/l1102.exe)
 Symmetrizing basis deriv contribution to polar:
 IMax=3 JMax=2 DiffMx= 0.00D+00
 Leave Link 1102 at Thu Feb 18 21:41:01 2021, MaxMem=    33554432 cpu:         0.0
 (Enter /apps/applications/gaussian/G09.D01/2/default/g09/l1110.exe)
 Forming Gx(P) for the SCF density, NAtomX=    22.
 Integral derivatives from FoFJK, PRISM(SPDF).
 Do as many integral derivatives as possible in FoFJK.
 G2DrvN: MDV=      33495261.
 G2DrvN: will do    23 centers at a time, making    1 passes.
 Calling FoFCou, ICntrl=  3107 FMM=F I1Cent=   0 AccDes= 0.00D+00.
 FoFJK:  IHMeth=40 ICntrl=    3107 DoSepK=F KAlg= 0 I1Cent=   0 FoldK=F
 IRaf=         0 NMat=   1 IRICut=       1 DoRegI=T DoRafI=F ISym2E= 0.
 FoFCou: FMM=F IPFlag=           0 FMFlag=      100000 FMFlg1=           0
         NFxFlg=           0 DoJE=F BraDBF=F KetDBF=F FulRan=T
         wScrn=  0.000000 ICntrl=    3107 IOpCl=  1 I1Cent=           0 NGrid=           0
         NMat0=    1 NMatS0=      1 NMatT0=    0 NMatD0=    1 NMtDS0=    0 NMtDT0=    0
 Symmetry not used in FoFCou.
 End of G2Drv F.D. properties file   721 does not exist.
 End of G2Drv F.D. properties file   722 does not exist.
 End of G2Drv F.D. properties file   788 does not exist.
 Leave Link 1110 at Thu Feb 18 21:41:01 2021, MaxMem=    33554432 cpu:         0.1
 (Enter /apps/applications/gaussian/G09.D01/2/default/g09/l1002.exe)
 Minotr:  UHF open shell wavefunction.
          IDoAtm=1111111111111111111111
          Direct CPHF calculation.
          Differentiating once with respect to electric field.
                with respect to dipole field.
          Differentiating once with respect to nuclear coordinates.
          Electric field/nuclear overlap derivatives assumed to be zero.
          Requested convergence is 1.0D-08 RMS, and 1.0D-07 maximum.
          NewPWx=T KeepS1=F KeepF1=F KeepIn=T MapXYZ=F SortEE=F KeepMc=T.
          MDV=      33495207 using IRadAn=       2.
 Keep J ints in memory in canonical form, NReq=889842.
 FoFCou: FMM=F IPFlag=           0 FMFlag=           0 FMFlg1=           0
         NFxFlg=           0 DoJE=F BraDBF=F KetDBF=F FulRan=T
         wScrn=  0.000000 ICntrl=     600 IOpCl=  2 I1Cent=           0 NGrid=           0
         NMat0=    1 NMatS0=    121 NMatT0=    0 NMatD0=    1 NMtDS0=    0 NMtDT0=    0
 Symmetry not used in FoFCou.
          Solving linear equations separately, MaxMat=       0.
          There are    69 degrees of freedom in the 1st order CPHF.  IDoFFX=5 NUNeed=    69.
 LinEq1:  Iter=  0 NonCon=    69 RMS=2.15D-01 Max=4.07D+00 NDo=    69
 AX will form    69 AO Fock derivatives at one time.
 LinEq1:  Iter=  1 NonCon=    69 RMS=4.90D-02 Max=6.42D-01 NDo=    69
 LinEq1:  Iter=  2 NonCon=    69 RMS=1.06D-02 Max=1.54D-01 NDo=    69
 LinEq1:  Iter=  3 NonCon=    69 RMS=2.02D-03 Max=2.10D-02 NDo=    69
 LinEq1:  Iter=  4 NonCon=    69 RMS=4.85D-04 Max=5.05D-03 NDo=    69
 LinEq1:  Iter=  5 NonCon=    69 RMS=9.89D-05 Max=1.46D-03 NDo=    69
 LinEq1:  Iter=  6 NonCon=    69 RMS=2.21D-05 Max=3.62D-04 NDo=    69
 LinEq1:  Iter=  7 NonCon=    63 RMS=5.16D-06 Max=8.79D-05 NDo=    69
 LinEq1:  Iter=  8 NonCon=    43 RMS=1.33D-06 Max=2.69D-05 NDo=    69
 LinEq1:  Iter=  9 NonCon=    12 RMS=3.14D-07 Max=5.82D-06 NDo=    69
 LinEq1:  Iter= 10 NonCon=     3 RMS=6.42D-08 Max=7.36D-07 NDo=    69
 LinEq1:  Iter= 11 NonCon=     2 RMS=1.09D-08 Max=1.14D-07 NDo=    69
 LinEq1:  Iter= 12 NonCon=     0 RMS=1.76D-09 Max=2.12D-08 NDo=    69
 Linear equations converged to 1.000D-08 1.000D-07 after    12 iterations.
 FullF1:  Do perturbations    1 to     3.
 Isotropic polarizability for W=    0.000000       78.81 Bohr**3.
 End of Minotr F.D. properties file   721 does not exist.
 End of Minotr F.D. properties file   722 does not exist.
 End of Minotr F.D. properties file   788 does not exist.
 Leave Link 1002 at Thu Feb 18 21:41:02 2021, MaxMem=    33554432 cpu:         0.7
 (Enter /apps/applications/gaussian/G09.D01/2/default/g09/l601.exe)
 Copying SCF densities to generalized density rwf, IOpCl= 1 IROHF=0.

 **********************************************************************

            Population analysis using the SCF density.

 **********************************************************************

 Alpha  occ. eigenvalues --   -1.25602  -1.18214  -1.11770  -1.07543  -1.02212
 Alpha  occ. eigenvalues --   -1.01299  -0.96467  -0.86991  -0.81931  -0.73119
 Alpha  occ. eigenvalues --   -0.69963  -0.66854  -0.64221  -0.63470  -0.59128
 Alpha  occ. eigenvalues --   -0.58600  -0.57242  -0.57106  -0.55607  -0.54371
 Alpha  occ. eigenvalues --   -0.53465  -0.52733  -0.50885  -0.50080  -0.48341
 Alpha  occ. eigenvalues --   -0.47701  -0.47042  -0.45369  -0.41835  -0.40322
 Alpha  occ. eigenvalues --   -0.37459  -0.34078
 Alpha virt. eigenvalues --   -0.00394   0.00868   0.02960   0.08321   0.08423
 Alpha virt. eigenvalues --    0.09746   0.11347   0.12329   0.12839   0.13829
 Alpha virt. eigenvalues --    0.14275   0.15977   0.17096   0.17760   0.18473
 Alpha virt. eigenvalues --    0.18947   0.19613   0.19733   0.20627   0.21164
 Alpha virt. eigenvalues --    0.21598   0.21844   0.22563
  Beta  occ. eigenvalues --   -1.25504  -1.18172  -1.11460  -1.01986  -1.00563
  Beta  occ. eigenvalues --   -0.96426  -0.94011  -0.86684  -0.81839  -0.72976
  Beta  occ. eigenvalues --   -0.69791  -0.66004  -0.64004  -0.63219  -0.58907
  Beta  occ. eigenvalues --   -0.58289  -0.57107  -0.55615  -0.53778  -0.52742
  Beta  occ. eigenvalues --   -0.51944  -0.50774  -0.50073  -0.49556  -0.48103
  Beta  occ. eigenvalues --   -0.47389  -0.45145  -0.42354  -0.37567  -0.34973
  Beta  occ. eigenvalues --   -0.34261
  Beta virt. eigenvalues --   -0.03167  -0.00210   0.01253   0.03595   0.08456
  Beta virt. eigenvalues --    0.08609   0.09823   0.11368   0.12444   0.12889
  Beta virt. eigenvalues --    0.13895   0.14410   0.15982   0.17210   0.17819
  Beta virt. eigenvalues --    0.18474   0.18955   0.19673   0.19755   0.20632
  Beta virt. eigenvalues --    0.21620   0.21910   0.22543   0.23403
          Condensed to atoms (all electrons):
               1          2          3          4          5          6
     1  O    6.313408   0.000000   0.000000   0.000000   0.000000   0.000000
     2  C    0.000000   3.298521   0.000000   0.000000   0.000000   0.000000
     3  C    0.000000   0.000000   4.668559   0.000000   0.000000   0.000000
     4  C    0.000000   0.000000   0.000000   4.128927   0.000000   0.000000
     5  C    0.000000   0.000000   0.000000   0.000000   4.367093   0.000000
     6  C    0.000000   0.000000   0.000000   0.000000   0.000000   3.974255
     7  H    0.000000   0.000000   0.000000   0.000000   0.000000   0.000000
     8  C    0.000000   0.000000   0.000000   0.000000   0.000000   0.000000
     9  O    0.000000   0.000000   0.000000   0.000000   0.000000   0.000000
    10  C    0.000000   0.000000   0.000000   0.000000   0.000000   0.000000
    11  H    0.000000   0.000000   0.000000   0.000000   0.000000   0.000000
    12  H    0.000000   0.000000   0.000000   0.000000   0.000000   0.000000
    13  H    0.000000   0.000000   0.000000   0.000000   0.000000   0.000000
    14  H    0.000000   0.000000   0.000000   0.000000   0.000000   0.000000
    15  H    0.000000   0.000000   0.000000   0.000000   0.000000   0.000000
    16  H    0.000000   0.000000   0.000000   0.000000   0.000000   0.000000
    17  H    0.000000   0.000000   0.000000   0.000000   0.000000   0.000000
    18  H    0.000000   0.000000   0.000000   0.000000   0.000000   0.000000
    19  H    0.000000   0.000000   0.000000   0.000000   0.000000   0.000000
    20  H    0.000000   0.000000   0.000000   0.000000   0.000000   0.000000
    21  O    0.000000   0.000000   0.000000   0.000000   0.000000   0.000000
    22  O    0.000000   0.000000   0.000000   0.000000   0.000000   0.000000
               7          8          9         10         11         12
     1  O    0.000000   0.000000   0.000000   0.000000   0.000000   0.000000
     2  C    0.000000   0.000000   0.000000   0.000000   0.000000   0.000000
     3  C    0.000000   0.000000   0.000000   0.000000   0.000000   0.000000
     4  C    0.000000   0.000000   0.000000   0.000000   0.000000   0.000000
     5  C    0.000000   0.000000   0.000000   0.000000   0.000000   0.000000
     6  C    0.000000   0.000000   0.000000   0.000000   0.000000   0.000000
     7  H    0.835512   0.000000   0.000000   0.000000   0.000000   0.000000
     8  C    0.000000   3.442478   0.000000   0.000000   0.000000   0.000000
     9  O    0.000000   0.000000   6.481050   0.000000   0.000000   0.000000
    10  C    0.000000   0.000000   0.000000   4.633788   0.000000   0.000000
    11  H    0.000000   0.000000   0.000000   0.000000   0.724987   0.000000
    12  H    0.000000   0.000000   0.000000   0.000000   0.000000   0.554797
    13  H    0.000000   0.000000   0.000000   0.000000   0.000000   0.000000
    14  H    0.000000   0.000000   0.000000   0.000000   0.000000   0.000000
    15  H    0.000000   0.000000   0.000000   0.000000   0.000000   0.000000
    16  H    0.000000   0.000000   0.000000   0.000000   0.000000   0.000000
    17  H    0.000000   0.000000   0.000000   0.000000   0.000000   0.000000
    18  H    0.000000   0.000000   0.000000   0.000000   0.000000   0.000000
    19  H    0.000000   0.000000   0.000000   0.000000   0.000000   0.000000
    20  H    0.000000   0.000000   0.000000   0.000000   0.000000   0.000000
    21  O    0.000000   0.000000   0.000000   0.000000   0.000000   0.000000
    22  O    0.000000   0.000000   0.000000   0.000000   0.000000   0.000000
              13         14         15         16         17         18
     1  O    0.000000   0.000000   0.000000   0.000000   0.000000   0.000000
     2  C    0.000000   0.000000   0.000000   0.000000   0.000000   0.000000
     3  C    0.000000   0.000000   0.000000   0.000000   0.000000   0.000000
     4  C    0.000000   0.000000   0.000000   0.000000   0.000000   0.000000
     5  C    0.000000   0.000000   0.000000   0.000000   0.000000   0.000000
     6  C    0.000000   0.000000   0.000000   0.000000   0.000000   0.000000
     7  H    0.000000   0.000000   0.000000   0.000000   0.000000   0.000000
     8  C    0.000000   0.000000   0.000000   0.000000   0.000000   0.000000
     9  O    0.000000   0.000000   0.000000   0.000000   0.000000   0.000000
    10  C    0.000000   0.000000   0.000000   0.000000   0.000000   0.000000
    11  H    0.000000   0.000000   0.000000   0.000000   0.000000   0.000000
    12  H    0.000000   0.000000   0.000000   0.000000   0.000000   0.000000
    13  H    0.789796   0.000000   0.000000   0.000000   0.000000   0.000000
    14  H    0.000000   0.853307   0.000000   0.000000   0.000000   0.000000
    15  H    0.000000   0.000000   0.872094   0.000000   0.000000   0.000000
    16  H    0.000000   0.000000   0.000000   0.843552   0.000000   0.000000
    17  H    0.000000   0.000000   0.000000   0.000000   0.843684   0.000000
    18  H    0.000000   0.000000   0.000000   0.000000   0.000000   0.812591
    19  H    0.000000   0.000000   0.000000   0.000000   0.000000   0.000000
    20  H    0.000000   0.000000   0.000000   0.000000   0.000000   0.000000
    21  O    0.000000   0.000000   0.000000   0.000000   0.000000   0.000000
    22  O    0.000000   0.000000   0.000000   0.000000   0.000000   0.000000
              19         20         21         22
     1  O    0.000000   0.000000   0.000000   0.000000
     2  C    0.000000   0.000000   0.000000   0.000000
     3  C    0.000000   0.000000   0.000000   0.000000
     4  C    0.000000   0.000000   0.000000   0.000000
     5  C    0.000000   0.000000   0.000000   0.000000
     6  C    0.000000   0.000000   0.000000   0.000000
     7  H    0.000000   0.000000   0.000000   0.000000
     8  C    0.000000   0.000000   0.000000   0.000000
     9  O    0.000000   0.000000   0.000000   0.000000
    10  C    0.000000   0.000000   0.000000   0.000000
    11  H    0.000000   0.000000   0.000000   0.000000
    12  H    0.000000   0.000000   0.000000   0.000000
    13  H    0.000000   0.000000   0.000000   0.000000
    14  H    0.000000   0.000000   0.000000   0.000000
    15  H    0.000000   0.000000   0.000000   0.000000
    16  H    0.000000   0.000000   0.000000   0.000000
    17  H    0.000000   0.000000   0.000000   0.000000
    18  H    0.000000   0.000000   0.000000   0.000000
    19  H    0.787625   0.000000   0.000000   0.000000
    20  H    0.000000   0.799983   0.000000   0.000000
    21  O    0.000000   0.000000   6.423680   0.000000
    22  O    0.000000   0.000000   0.000000   6.550311
          Atomic-Atomic Spin Densities.
               1          2          3          4          5          6
     1  O    0.008928   0.000000   0.000000   0.000000   0.000000   0.000000
     2  C    0.000000  -0.011939   0.000000   0.000000   0.000000   0.000000
     3  C    0.000000   0.000000   0.079939   0.000000   0.000000   0.000000
     4  C    0.000000   0.000000   0.000000  -0.003944   0.000000   0.000000
     5  C    0.000000   0.000000   0.000000   0.000000   0.001037   0.000000
     6  C    0.000000   0.000000   0.000000   0.000000   0.000000  -0.012543
     7  H    0.000000   0.000000   0.000000   0.000000   0.000000   0.000000
     8  C    0.000000   0.000000   0.000000   0.000000   0.000000   0.000000
     9  O    0.000000   0.000000   0.000000   0.000000   0.000000   0.000000
    10  C    0.000000   0.000000   0.000000   0.000000   0.000000   0.000000
    11  H    0.000000   0.000000   0.000000   0.000000   0.000000   0.000000
    12  H    0.000000   0.000000   0.000000   0.000000   0.000000   0.000000
    13  H    0.000000   0.000000   0.000000   0.000000   0.000000   0.000000
    14  H    0.000000   0.000000   0.000000   0.000000   0.000000   0.000000
    15  H    0.000000   0.000000   0.000000   0.000000   0.000000   0.000000
    16  H    0.000000   0.000000   0.000000   0.000000   0.000000   0.000000
    17  H    0.000000   0.000000   0.000000   0.000000   0.000000   0.000000
    18  H    0.000000   0.000000   0.000000   0.000000   0.000000   0.000000
    19  H    0.000000   0.000000   0.000000   0.000000   0.000000   0.000000
    20  H    0.000000   0.000000   0.000000   0.000000   0.000000   0.000000
    21  O    0.000000   0.000000   0.000000   0.000000   0.000000   0.000000
    22  O    0.000000   0.000000   0.000000   0.000000   0.000000   0.000000
               7          8          9         10         11         12
     1  O    0.000000   0.000000   0.000000   0.000000   0.000000   0.000000
     2  C    0.000000   0.000000   0.000000   0.000000   0.000000   0.000000
     3  C    0.000000   0.000000   0.000000   0.000000   0.000000   0.000000
     4  C    0.000000   0.000000   0.000000   0.000000   0.000000   0.000000
     5  C    0.000000   0.000000   0.000000   0.000000   0.000000   0.000000
     6  C    0.000000   0.000000   0.000000   0.000000   0.000000   0.000000
     7  H    0.000561   0.000000   0.000000   0.000000   0.000000   0.000000
     8  C    0.000000   0.000317   0.000000   0.000000   0.000000   0.000000
     9  O    0.000000   0.000000   0.000100   0.000000   0.000000   0.000000
    10  C    0.000000   0.000000   0.000000  -0.000230   0.000000   0.000000
    11  H    0.000000   0.000000   0.000000   0.000000  -0.063628   0.000000
    12  H    0.000000   0.000000   0.000000   0.000000   0.000000  -0.015673
    13  H    0.000000   0.000000   0.000000   0.000000   0.000000   0.000000
    14  H    0.000000   0.000000   0.000000   0.000000   0.000000   0.000000
    15  H    0.000000   0.000000   0.000000   0.000000   0.000000   0.000000
    16  H    0.000000   0.000000   0.000000   0.000000   0.000000   0.000000
    17  H    0.000000   0.000000   0.000000   0.000000   0.000000   0.000000
    18  H    0.000000   0.000000   0.000000   0.000000   0.000000   0.000000
    19  H    0.000000   0.000000   0.000000   0.000000   0.000000   0.000000
    20  H    0.000000   0.000000   0.000000   0.000000   0.000000   0.000000
    21  O    0.000000   0.000000   0.000000   0.000000   0.000000   0.000000
    22  O    0.000000   0.000000   0.000000   0.000000   0.000000   0.000000
              13         14         15         16         17         18
     1  O    0.000000   0.000000   0.000000   0.000000   0.000000   0.000000
     2  C    0.000000   0.000000   0.000000   0.000000   0.000000   0.000000
     3  C    0.000000   0.000000   0.000000   0.000000   0.000000   0.000000
     4  C    0.000000   0.000000   0.000000   0.000000   0.000000   0.000000
     5  C    0.000000   0.000000   0.000000   0.000000   0.000000   0.000000
     6  C    0.000000   0.000000   0.000000   0.000000   0.000000   0.000000
     7  H    0.000000   0.000000   0.000000   0.000000   0.000000   0.000000
     8  C    0.000000   0.000000   0.000000   0.000000   0.000000   0.000000
     9  O    0.000000   0.000000   0.000000   0.000000   0.000000   0.000000
    10  C    0.000000   0.000000   0.000000   0.000000   0.000000   0.000000
    11  H    0.000000   0.000000   0.000000   0.000000   0.000000   0.000000
    12  H    0.000000   0.000000   0.000000   0.000000   0.000000   0.000000
    13  H    0.000945   0.000000   0.000000   0.000000   0.000000   0.000000
    14  H    0.000000   0.000382   0.000000   0.000000   0.000000   0.000000
    15  H    0.000000   0.000000   0.000964   0.000000   0.000000   0.000000
    16  H    0.000000   0.000000   0.000000   0.000178   0.000000   0.000000
    17  H    0.000000   0.000000   0.000000   0.000000  -0.000072   0.000000
    18  H    0.000000   0.000000   0.000000   0.000000   0.000000  -0.000001
    19  H    0.000000   0.000000   0.000000   0.000000   0.000000   0.000000
    20  H    0.000000   0.000000   0.000000   0.000000   0.000000   0.000000
    21  O    0.000000   0.000000   0.000000   0.000000   0.000000   0.000000
    22  O    0.000000   0.000000   0.000000   0.000000   0.000000   0.000000
              19         20         21         22
     1  O    0.000000   0.000000   0.000000   0.000000
     2  C    0.000000   0.000000   0.000000   0.000000
     3  C    0.000000   0.000000   0.000000   0.000000
     4  C    0.000000   0.000000   0.000000   0.000000
     5  C    0.000000   0.000000   0.000000   0.000000
     6  C    0.000000   0.000000   0.000000   0.000000
     7  H    0.000000   0.000000   0.000000   0.000000
     8  C    0.000000   0.000000   0.000000   0.000000
     9  O    0.000000   0.000000   0.000000   0.000000
    10  C    0.000000   0.000000   0.000000   0.000000
    11  H    0.000000   0.000000   0.000000   0.000000
    12  H    0.000000   0.000000   0.000000   0.000000
    13  H    0.000000   0.000000   0.000000   0.000000
    14  H    0.000000   0.000000   0.000000   0.000000
    15  H    0.000000   0.000000   0.000000   0.000000
    16  H    0.000000   0.000000   0.000000   0.000000
    17  H    0.000000   0.000000   0.000000   0.000000
    18  H    0.000000   0.000000   0.000000   0.000000
    19  H    0.000008   0.000000   0.000000   0.000000
    20  H    0.000000   0.000003   0.000000   0.000000
    21  O    0.000000   0.000000   0.905164   0.000000
    22  O    0.000000   0.000000   0.000000   0.109503
 Mulliken charges and spin densities:
               1          2
     1  O   -0.313408   0.008928
     2  C    0.701479  -0.011939
     3  C   -0.668559   0.079939
     4  C   -0.128927  -0.003944
     5  C   -0.367093   0.001037
     6  C    0.025745  -0.012543
     7  H    0.164488   0.000561
     8  C    0.557522   0.000317
     9  O   -0.481050   0.000100
    10  C   -0.633788  -0.000230
    11  H    0.275013  -0.063628
    12  H    0.445203  -0.015673
    13  H    0.210204   0.000945
    14  H    0.146693   0.000382
    15  H    0.127906   0.000964
    16  H    0.156448   0.000178
    17  H    0.156316  -0.000072
    18  H    0.187409  -0.000001
    19  H    0.212375   0.000008
    20  H    0.200017   0.000003
    21  O   -0.423680   0.905164
    22  O   -0.550311   0.109503
 Sum of Mulliken charges =   0.00000   1.00000
 Mulliken charges and spin densities with hydrogens summed into heavy atoms:
               1          2
     1  O   -0.313408   0.008928
     2  C    0.701479  -0.011939
     3  C   -0.458355   0.080884
     4  C    0.145672  -0.002599
     5  C   -0.054330   0.001143
     6  C    0.190233  -0.011981
     8  C    0.557522   0.000317
     9  O   -0.481050   0.000100
    10  C   -0.033987  -0.000220
    21  O   -0.148668   0.841537
    22  O   -0.105108   0.093830
 APT charges:
               1
     1  O   -0.725642
     2  C    1.585259
     3  C   -1.258997
     4  C    0.009846
     5  C   -0.419823
     6  C    0.113849
     7  H    0.112245
     8  C    1.113986
     9  O   -0.763375
    10  C   -0.984017
    11  H    0.260230
    12  H    0.682776
    13  H    0.255161
    14  H    0.139583
    15  H    0.115187
    16  H    0.163804
    17  H    0.147049
    18  H    0.231189
    19  H    0.260061
    20  H    0.239960
    21  O    0.000000
    22  O   -1.278317
 Sum of APT charges =   0.00001
 APT charges with hydrogens summed into heavy atoms:
               1
     1  O   -0.725642
     2  C    1.585259
     3  C   -1.003836
     4  C    0.264616
     5  C   -0.108971
     6  C    0.226094
     8  C    1.113986
     9  O   -0.763375
    10  C   -0.252807
    21  O    0.260230
    22  O   -0.595542
 Charge=              0.0000 electrons
 Dipole moment (field-independent basis, Debye):
    X=              3.2409    Y=              1.1982    Z=             -0.1445  Tot=              3.4583
 N-N= 4.065836567638D+02 E-N=-7.335993191596D+02  KE=-3.737312804841D+01
  Exact polarizability:  52.631   3.914  97.269  -0.364   4.083  86.539
 Approx polarizability:  38.645  -4.257  65.262   1.353  -4.088  61.969
 Leave Link  601 at Thu Feb 18 21:41:02 2021, MaxMem=    33554432 cpu:         0.0
 (Enter /apps/applications/gaussian/G09.D01/2/default/g09/l701.exe)
 Compute integral second derivatives.
 ... and contract with generalized density number  0.
 Leave Link  701 at Thu Feb 18 21:41:02 2021, MaxMem=    33554432 cpu:         0.1
 (Enter /apps/applications/gaussian/G09.D01/2/default/g09/l702.exe)
 L702 exits ... SP integral derivatives will be done elsewhere.
 Leave Link  702 at Thu Feb 18 21:41:02 2021, MaxMem=    33554432 cpu:         0.0
 (Enter /apps/applications/gaussian/G09.D01/2/default/g09/l703.exe)
 Compute integral second derivatives, UseDBF=F ICtDFT=           0.
 Integral derivatives from FoFJK, PRISM(SPDF).
 Calling FoFJK, ICntrl=    100127 FMM=F ISym2X=0 I1Cent= 0 IOpClX= 1 NMat=1 NMatS=1 NMatT=0.
 FoFJK:  IHMeth=40 ICntrl=  100127 DoSepK=F KAlg= 0 I1Cent=   0 FoldK=F
 IRaf=         0 NMat=   1 IRICut=       1 DoRegI=T DoRafI=F ISym2E= 0.
 FoFCou: FMM=F IPFlag=           0 FMFlag=      100000 FMFlg1=         800
         NFxFlg=           0 DoJE=F BraDBF=F KetDBF=F FulRan=T
         wScrn=  0.000000 ICntrl=  100127 IOpCl=  1 I1Cent=           0 NGrid=           0
         NMat0=    1 NMatS0=      1 NMatT0=    0 NMatD0=    1 NMtDS0=    0 NMtDT0=    0
 Symmetry not used in FoFCou.
 Leave Link  703 at Thu Feb 18 21:41:02 2021, MaxMem=    33554432 cpu:         0.1
 (Enter /apps/applications/gaussian/G09.D01/2/default/g09/l716.exe)
 Dipole        = 1.27505490D+00 4.71394824D-01-5.68649941D-02
 Polarizability= 5.26313511D+01 3.91356970D+00 9.72685833D+01
                -3.63839005D-01 4.08266928D+00 8.65392620D+01
 HyperPolar    =-5.70395676D+01-2.83311561D+02-7.39175287D+02
                -2.01201758D+03-6.58066258D+00-5.71343436D+01
                -4.53595646D+01 2.19312774D+01-8.35740669D+00
                 1.01977598D+02
 -------------------------------------------------------------------
 Center     Atomic                   Forces (Hartrees/Bohr)
 Number     Number              X              Y              Z
 -------------------------------------------------------------------
      1        8           0.000000046   -0.000000475    0.000000832
      2        6          -0.000000162    0.000000332   -0.000000502
      3        6          -0.000000296   -0.000000162    0.000000203
      4        6           0.000000439    0.000000037   -0.000000556
      5        6          -0.000000124    0.000000159    0.000000302
      6        6           0.000000546   -0.000000079    0.000000105
      7        1           0.000000082   -0.000000233    0.000000117
      8        6           0.000000442   -0.000000761   -0.000000286
      9        8          -0.000000747    0.000000730   -0.000000395
     10        6           0.000000211    0.000000223   -0.000000155
     11        1           0.000000497   -0.000000178   -0.000000715
     12        1          -0.000000305    0.000000265   -0.000000244
     13        1          -0.000000236    0.000000368    0.000000068
     14        1          -0.000000052    0.000000017   -0.000000037
     15        1           0.000000271    0.000000309    0.000000138
     16        1           0.000000237   -0.000000035   -0.000000319
     17        1           0.000000086   -0.000000015    0.000000118
     18        1          -0.000000055   -0.000000013    0.000000022
     19        1          -0.000000089   -0.000000261    0.000000100
     20        1          -0.000000014   -0.000000020   -0.000000041
     21        8          -0.000000645   -0.000000058    0.000000768
     22        8          -0.000000132   -0.000000152    0.000000479
 -------------------------------------------------------------------
 Cartesian Forces:  Max     0.000000832 RMS     0.000000341
 Leave Link  716 at Thu Feb 18 21:41:02 2021, MaxMem=    33554432 cpu:         0.0
 (Enter /apps/applications/gaussian/G09.D01/2/default/g09/l103.exe)

 GradGradGradGradGradGradGradGradGradGradGradGradGradGradGradGradGradGrad
 Berny optimization.
 Search for a saddle point.
 Step number   1 out of a maximum of  100
 All quantities printed in internal units (Hartrees-Bohrs-Radians)
 Swapping is turned off.
 Second derivative matrix not updated -- analytic derivatives used.
 ITU=  0
     Eigenvalues ---   -0.16582   0.00016   0.00040   0.00051   0.00128
     Eigenvalues ---    0.00195   0.00263   0.00306   0.00532   0.00845
     Eigenvalues ---    0.01257   0.01341   0.01483   0.02180   0.03133
     Eigenvalues ---    0.03328   0.03605   0.04104   0.04386   0.04589
     Eigenvalues ---    0.04750   0.04985   0.05175   0.05530   0.06257
     Eigenvalues ---    0.06585   0.07186   0.07623   0.08123   0.09323
     Eigenvalues ---    0.09982   0.11280   0.12556   0.14080   0.14709
     Eigenvalues ---    0.15935   0.17758   0.18054   0.21828   0.24270
     Eigenvalues ---    0.26627   0.30219   0.33307   0.38872   0.44814
     Eigenvalues ---    0.47311   0.52295   0.55603   0.57190   0.57649
     Eigenvalues ---    0.59743   0.61290   0.64150   0.64546   0.67984
     Eigenvalues ---    0.71671   0.73767   0.81483   1.64478   2.16106
 Eigenvectors required to have negative eigenvalues:
                          Y12       Y2        Z3        Z22       X3
   1                    0.73981  -0.32743  -0.31488   0.25616  -0.21246
                          Z2        Y3        Y22       X22       Y1
   1                   -0.18961  -0.17473  -0.13296   0.13119   0.06471
 RFO step:  Lambda0=5.777600620D-13 Lambda= 0.00000000D+00.
 Linear search not attempted -- option 19 set.
 TrRot= -0.000005  0.000001 -0.000004 -0.000001 -0.000003 -0.000001
 Variable       Old X    -DE/DX   Delta X   Delta X   Delta X     New X
                                 (Linear)    (Quad)   (Total)
    X1       -1.20586   0.00000   0.00000  -0.00003  -0.00005  -1.20590
    Y1        0.65760   0.00000   0.00000  -0.00002  -0.00001   0.65759
    Z1        5.97483   0.00000   0.00000  -0.00001  -0.00002   5.97481
    X2       -1.23485   0.00000   0.00000  -0.00002  -0.00003  -1.23488
    Y2        1.63807   0.00000   0.00000  -0.00001   0.00000   1.63807
    Z2        4.00168   0.00000   0.00000  -0.00001  -0.00002   4.00166
    X3       -1.34579   0.00000   0.00000   0.00000  -0.00001  -1.34580
    Y3        3.49382   0.00000   0.00000   0.00000   0.00001   3.49382
    Z3        2.12532   0.00000   0.00000   0.00000  -0.00001   2.12532
    X4        1.00645   0.00000   0.00000   0.00000   0.00000   1.00645
    Y4        3.71151   0.00000   0.00000   0.00000   0.00000   3.71151
    Z4        0.49575   0.00000   0.00000   0.00000   0.00000   0.49575
    X5        2.44360   0.00000   0.00000   0.00000   0.00000   2.44360
    Y5        1.17603   0.00000   0.00000   0.00000   0.00000   1.17602
    Z5        0.36592   0.00000   0.00000   0.00000   0.00001   0.36593
    X6        0.63798   0.00000   0.00000   0.00000  -0.00001   0.63797
    Y6       -1.09547   0.00000   0.00000   0.00000   0.00000  -1.09547
    Z6        0.12452   0.00000   0.00000  -0.00001  -0.00001   0.12451
    X7        1.46352   0.00000   0.00000   0.00000  -0.00002   1.46350
    Y7       -2.88602   0.00000   0.00000   0.00000   0.00000  -2.88603
    Z7        0.83539   0.00000   0.00000  -0.00001  -0.00001   0.83538
    X8       -0.37701   0.00000   0.00000   0.00001   0.00001  -0.37700
    Y8       -1.30735   0.00000   0.00000   0.00001   0.00001  -1.30734
    Z8       -2.60700   0.00000   0.00000  -0.00001  -0.00002  -2.60702
    X9       -1.98299   0.00000   0.00000   0.00002   0.00003  -1.98296
    Y9        0.16073   0.00000   0.00000   0.00002   0.00003   0.16076
    Z9       -3.31483   0.00000   0.00000  -0.00002  -0.00003  -3.31486
   X10        0.70728   0.00000   0.00000   0.00000   0.00000   0.70728
   Y10       -3.36600   0.00000   0.00000   0.00000   0.00000  -3.36600
   Z10       -4.19456   0.00000   0.00000  -0.00001  -0.00001  -4.19456
   X11       -3.65383   0.00000   0.00000   0.00020   0.00018  -3.65365
   Y11       -3.86556   0.00000   0.00000  -0.00004  -0.00003  -3.86560
   Z11        3.23405   0.00000   0.00000   0.00015   0.00014   3.23419
   X12       -2.60687   0.00000   0.00000   0.00000  -0.00001  -2.60687
   Y12        1.46734   0.00000   0.00000   0.00000   0.00001   1.46735
   Z12        0.52106   0.00000   0.00000  -0.00001  -0.00002   0.52104
   X13       -2.46294   0.00000   0.00000   0.00000   0.00000  -2.46294
   Y13        5.18368   0.00000   0.00000   0.00001   0.00001   5.18370
   Z13        2.39042   0.00000   0.00000   0.00000  -0.00001   2.39042
   X14        0.44061   0.00000   0.00000   0.00000   0.00001   0.44062
   Y14        4.31525   0.00000   0.00000   0.00000   0.00000   4.31525
   Z14       -1.43338   0.00000   0.00000   0.00000   0.00000  -1.43338
   X15        2.26469   0.00000   0.00000   0.00000   0.00001   2.26470
   Y15        5.20825   0.00000   0.00000   0.00000   0.00000   5.20825
   Z15        1.24124   0.00000   0.00000   0.00001   0.00001   1.24125
   X16        3.79740   0.00000   0.00000   0.00001   0.00001   3.79740
   Y16        1.20149   0.00000   0.00000   0.00000   0.00000   1.20148
   Z16       -1.22626   0.00000   0.00000   0.00001   0.00001  -1.22624
   X17        3.61606   0.00000   0.00000   0.00000  -0.00001   3.61605
   Y17        0.93821   0.00000   0.00000   0.00000  -0.00001   0.93820
   Z17        2.08391   0.00000   0.00000   0.00001   0.00001   2.08392
   X18        2.77231   0.00000   0.00000   0.00000   0.00000   2.77231
   Y18       -3.47975   0.00000   0.00000  -0.00002  -0.00002  -3.47978
   Z18       -4.08959   0.00000   0.00000   0.00000   0.00001  -4.08959
   X19       -0.04450   0.00000   0.00000  -0.00002  -0.00003  -0.04452
   Y19       -5.21224   0.00000   0.00000   0.00000   0.00000  -5.21224
   Z19       -3.57080   0.00000   0.00000   0.00000  -0.00001  -3.57081
   X20        0.17451   0.00000   0.00000   0.00000   0.00001   0.17452
   Y20       -3.15506   0.00000   0.00000  -0.00001   0.00000  -3.15506
   Z20       -6.19452   0.00000   0.00000  -0.00001  -0.00001  -6.19453
   X21       -2.79413   0.00000   0.00000  -0.00006  -0.00008  -2.79421
   Y21       -4.14679   0.00000   0.00000   0.00001   0.00002  -4.14677
   Z21        1.64581   0.00000   0.00000   0.00001  -0.00001   1.64581
   X22       -1.61564   0.00000   0.00000   0.00000  -0.00001  -1.61565
   Y22       -0.63774   0.00000   0.00000   0.00000   0.00001  -0.63773
   Z22        1.59102   0.00000   0.00000  -0.00001  -0.00002   1.59099
         Item               Value     Threshold  Converged?
 Maximum Force            0.000001     0.000450     YES
 RMS     Force            0.000000     0.000300     YES
 Maximum Displacement     0.000180     0.001800     YES
 RMS     Displacement     0.000033     0.001200     YES
 Predicted change in Energy=-2.639316D-11
 Optimization completed.
    -- Stationary point found.
 Lowest energy point so far.  Saving SCF results.
 GradGradGradGradGradGradGradGradGradGradGradGradGradGradGradGradGradGrad

 Largest change from initial coordinates is atom    0       0.000 Angstoms.
 Leave Link  103 at Thu Feb 18 21:41:02 2021, MaxMem=    33554432 cpu:         0.0
 (Enter /apps/applications/gaussian/G09.D01/2/default/g09/l202.exe)
                          Input orientation:                          
 ---------------------------------------------------------------------
 Center     Atomic      Atomic             Coordinates (Angstroms)
 Number     Number       Type             X           Y           Z
 ---------------------------------------------------------------------
      1          8           0       -0.638111    0.347987    3.161744
      2          6           0       -0.653454    0.866831    2.117597
      3          6           0       -0.712161    1.848849    1.124673
      4          6           0        0.532588    1.964048    0.262341
      5          6           0        1.293098    0.622327    0.193637
      6          6           0        0.337602   -0.579697    0.065892
      7          1           0        0.774460   -1.527217    0.442071
      8          6           0       -0.199504   -0.691822   -1.379567
      9          8           0       -1.049351    0.085056   -1.754132
     10          6           0        0.374279   -1.781208   -2.219663
     11          1           0       -1.933523   -2.045568    1.711387
     12          1           0       -1.379495    0.776482    0.275734
     13          1           0       -1.303334    2.743087    1.264958
     14          1           0        0.233159    2.283530   -0.758511
     15          1           0        1.198424    2.756086    0.656835
     16          1           0        2.009495    0.635799   -0.648907
     17          1           0        1.913536    0.496480    1.102756
     18          1           0        1.467044   -1.841405   -2.164118
     19          1           0       -0.023548   -2.758198   -1.889585
     20          1           0        0.092348   -1.669585   -3.278000
     21          8           0       -1.478591   -2.194386    0.870927
     22          8           0       -0.854959   -0.337477    0.841929
 ---------------------------------------------------------------------
                    Distance matrix (angstroms):
                    1          2          3          4          5
     1  O    0.000000
     2  C    1.166052   0.000000
     3  C    2.531349   1.397750   0.000000
     4  C    3.519762   2.460194   1.518647   0.000000
     5  C    3.551688   2.747812   2.528290   1.543798   0.000000
     6  C    3.375931   2.698912   2.849711   2.558760   1.540829
     7  H    3.592822   3.252352   3.751508   3.504245   2.225139
     8  C    4.679432   3.855597   3.604032   3.207096   2.535709
     9  O    4.940049   3.969659   3.392961   3.177940   3.093466
    10  C    5.875198   5.184609   5.053934   4.495815   3.527779
    11  H    3.083948   3.207125   4.123402   4.925288   4.453348
    12  H    3.010367   1.981857   1.521842   2.250901   2.678294
    13  H    3.126791   2.160943   1.081123   2.232208   3.519490
    14  H    4.458008   3.326427   2.151502   1.110795   2.188527
    15  H    3.930187   3.022013   2.166169   1.107379   2.185507
    16  H    4.649055   3.846845   3.467634   2.185377   1.106023
    17  H    3.282131   2.785049   2.953585   2.183362   1.107826
    18  H    6.131062   5.492189   5.402134   4.608946   3.414563
    19  H    5.961711   5.440140   5.548407   5.219165   4.183458
    20  H    6.787818   6.008502   5.692991   5.092260   4.329772
    21  O    3.523905   3.406771   4.123051   4.659162   4.009346
    22  O    2.428667   1.765868   2.209153   2.749223   2.440421
                    6          7          8          9         10
     6  C    0.000000
     7  H    1.109121   0.000000
     8  C    1.546094   2.228196   0.000000
     9  O    2.382860   3.278570   1.210817   0.000000
    10  C    2.582390   2.703606   1.490554   2.392986   0.000000
    11  H    3.164560   3.035296   3.793870   4.163069   4.566069
    12  H    2.198108   3.158199   2.507652   2.169659   3.980516
    13  H    3.895038   4.819737   4.473316   4.030452   5.951992
    14  H    2.981378   4.031897   3.070118   2.733017   4.321687
    15  H    3.495379   4.309589   4.241368   4.242600   5.435117
    16  H    2.187143   2.719225   2.678828   3.298694   3.314080
    17  H    2.171822   2.414404   3.469716   4.136397   4.312267
    18  H    2.800088   2.714886   2.171277   3.195557   1.095830
    19  H    2.949608   2.754769   2.135647   3.025676   1.105318
    20  H    3.525566   3.784769   2.155283   2.589289   1.100919
    21  O    2.560051   2.388571   2.993073   3.503004   3.627064
    22  O    1.443297   2.056787   2.343123   2.637396   3.601212
                   11         12         13         14         15
    11  H    0.000000
    12  H    3.214345   0.000000
    13  H    4.850531   2.202703   0.000000
    14  H    5.434703   2.437521   2.581943   0.000000
    15  H    5.828984   3.272573   2.574641   1.777147   0.000000
    16  H    5.320536   3.515680   4.367880   2.425366   2.618858
    17  H    4.651054   3.406820   3.927061   3.079209   2.411649
    18  H    5.159949   4.572635   6.360120   4.529160   5.400635
    19  H    4.137976   4.361326   6.469400   5.173417   6.195547
    20  H    5.398101   4.558354   6.485219   4.689858   6.024358
    21  O    0.967204   3.031523   4.956270   5.063288   5.631999
    22  O    2.199280   1.355219   3.141635   3.258080   3.717630
                   16         17         18         19         20
    16  H    0.000000
    17  H    1.759813   0.000000
    18  H    2.954092   4.041971   0.000000
    19  H    4.146295   4.826938   1.771367   0.000000
    20  H    3.987779   5.215322   1.777651   1.768108   0.000000
    21  O    4.742002   4.336015   4.244156   3.171035   4.467310
    22  O    3.372678   2.903115   4.085317   3.743301   4.432349
                   21         22
    21  O    0.000000
    22  O    1.959048   0.000000
 Symmetry turned off by external request.
 Stoichiometry    C7H11O4(2)
 Framework group  C1[X(C7H11O4)]
 Deg. of freedom    60
 Full point group                 C1      NOp   1
 Rotational constants (GHZ):      1.5852914      0.9322589      0.7201973
 Leave Link  202 at Thu Feb 18 21:41:02 2021, MaxMem=    33554432 cpu:         0.0
 (Enter /apps/applications/gaussian/G09.D01/2/default/g09/l716.exe)
 Dipole        = 1.27505490D+00 4.71394824D-01-5.68649941D-02
 Polarizability= 5.26313511D+01 3.91356970D+00 9.72685833D+01
                -3.63839005D-01 4.08266928D+00 8.65392620D+01
 HyperPolar    =-5.70395676D+01-2.83311561D+02-7.39175287D+02
                -2.01201758D+03-6.58066258D+00-5.71343436D+01
                -4.53595646D+01 2.19312774D+01-8.35740669D+00
                 1.01977598D+02
 Full mass-weighted force constant matrix:
 Low frequencies ----1400.8283   -2.2455   -1.5411   -1.1037    0.6005    1.8925
 Low frequencies ---    3.1168   30.6904   63.3813
 ******    1 imaginary frequencies (negative Signs) ****** 
 Diagonal vibrational polarizability:
      262.8366910     254.6845298     371.5862598
 Harmonic frequencies (cm**-1), IR intensities (KM/Mole), Raman scattering
 activities (A**4/AMU), depolarization ratios for plane and unpolarized
 incident light, reduced masses (AMU), force constants (mDyne/A),
 and normal coordinates:
                      1                      2                      3
                      A                      A                      A
 Frequencies --  -1400.8283                30.6898                63.3807
 Red. masses --      1.2095                 4.0279                 4.3499
 Frc consts  --      1.3984                 0.0022                 0.0103
 IR Inten    --   1237.4004                10.4170                 3.3108
  Atom  AN      X      Y      Z        X      Y      Z        X      Y      Z
     1   8     0.00   0.00   0.01    -0.11   0.05  -0.04    -0.13  -0.11  -0.06
     2   6     0.01  -0.08  -0.02    -0.03   0.01  -0.06    -0.05  -0.05  -0.03
     3   6    -0.05  -0.02  -0.07     0.06   0.01  -0.07     0.02   0.01   0.03
     4   6     0.02   0.01   0.00     0.10  -0.07  -0.03     0.02   0.02   0.04
     5   6     0.00   0.00   0.00     0.04  -0.11   0.02     0.00   0.01  -0.01
     6   6    -0.01   0.00   0.02    -0.03  -0.06   0.00    -0.01   0.03  -0.06
     7   1     0.03   0.00  -0.02    -0.08  -0.09  -0.02    -0.03   0.02  -0.06
     8   6    -0.01   0.00   0.01    -0.02   0.02  -0.01     0.02   0.05  -0.07
     9   8     0.00   0.00   0.00    -0.15  -0.05   0.11     0.13   0.14  -0.13
    10   6     0.00   0.00   0.00     0.14   0.23  -0.16    -0.12  -0.08  -0.01
    11   1     0.00   0.00  -0.01     0.06   0.04   0.21     0.55  -0.02   0.54
    12   1     0.02   0.98   0.10     0.02  -0.01  -0.07     0.00   0.04  -0.04
    13   1     0.05   0.05   0.06     0.11   0.04  -0.11     0.04   0.02   0.08
    14   1     0.02   0.01   0.00     0.15  -0.07  -0.04     0.03   0.06   0.05
    15   1     0.01   0.00   0.01     0.12  -0.10  -0.02     0.03  -0.01   0.07
    16   1     0.00   0.00   0.00     0.08  -0.16   0.06     0.00   0.04  -0.01
    17   1     0.00   0.00   0.00    -0.01  -0.13   0.06     0.00  -0.03  -0.02
    18   1     0.00   0.00   0.00     0.15   0.36  -0.12    -0.13  -0.20  -0.02
    19   1     0.00   0.00   0.00     0.25   0.13  -0.34    -0.23  -0.01   0.07
    20   1     0.00   0.00   0.00     0.17   0.37  -0.15    -0.12  -0.11  -0.01
    21   8     0.00   0.00   0.00     0.01  -0.05   0.20     0.10  -0.03   0.30
    22   8     0.02  -0.01   0.03    -0.02   0.00  -0.01    -0.02   0.03  -0.08
                      4                      5                      6
                      A                      A                      A
 Frequencies --     71.7279                90.8500               106.7303
 Red. masses --      5.1392                 2.8805                 1.2298
 Frc consts  --      0.0156                 0.0140                 0.0083
 IR Inten    --     15.3314                13.6817                11.6456
  Atom  AN      X      Y      Z        X      Y      Z        X      Y      Z
     1   8     0.17  -0.13  -0.01     0.01   0.09   0.02    -0.07  -0.02  -0.01
     2   6     0.05  -0.08   0.01    -0.03   0.02  -0.01    -0.01  -0.01  -0.01
     3   6    -0.04  -0.02   0.06    -0.09  -0.08  -0.11     0.02   0.00   0.00
     4   6    -0.09   0.03   0.01    -0.07  -0.06  -0.07     0.02   0.01   0.01
     5   6    -0.04   0.06  -0.05     0.02  -0.01   0.05     0.03   0.02  -0.01
     6   6    -0.01   0.02  -0.03     0.08  -0.06   0.02     0.04   0.01   0.00
     7   1     0.01   0.04   0.00     0.13  -0.06  -0.05     0.05   0.02   0.00
     8   6     0.05  -0.03  -0.04     0.04   0.03   0.02     0.00  -0.01   0.01
     9   8     0.01  -0.11  -0.10     0.08   0.12   0.10    -0.02  -0.02   0.04
    10   6     0.21   0.03  -0.01    -0.08   0.04  -0.06    -0.02  -0.01   0.01
    11   1     0.34   0.09   0.50     0.55  -0.19   0.36     0.23  -0.05   0.12
    12   1    -0.06   0.00   0.04    -0.01  -0.17  -0.02     0.03   0.00  -0.01
    13   1    -0.05  -0.05   0.14    -0.18  -0.12  -0.21     0.02   0.00   0.01
    14   1    -0.14   0.04   0.03    -0.07  -0.16  -0.11     0.03   0.04   0.02
    15   1    -0.09   0.05  -0.01    -0.14   0.02  -0.11     0.02   0.01   0.03
    16   1    -0.08   0.10  -0.08     0.09  -0.01   0.11     0.01   0.03  -0.03
    17   1     0.01   0.07  -0.08    -0.05   0.06   0.11     0.04   0.02  -0.03
    18   1     0.21   0.12   0.09    -0.09  -0.11  -0.05     0.02   0.35  -0.41
    19   1     0.26  -0.01  -0.07    -0.21   0.06  -0.14     0.42  -0.07   0.35
    20   1     0.30   0.02  -0.03    -0.05   0.15  -0.05    -0.46  -0.30   0.09
    21   8    -0.31   0.19   0.13    -0.10   0.04  -0.03    -0.03   0.02  -0.03
    22   8     0.00   0.01  -0.02     0.09  -0.12   0.05     0.04   0.00   0.00
                      7                      8                      9
                      A                      A                      A
 Frequencies --    114.0189               136.9893               169.2029
 Red. masses --      2.1335                 2.5372                 3.4206
 Frc consts  --      0.0163                 0.0281                 0.0577
 IR Inten    --     25.2031                52.9668                83.4270
  Atom  AN      X      Y      Z        X      Y      Z        X      Y      Z
     1   8     0.12   0.04   0.02     0.07   0.04  -0.01     0.06   0.06   0.06
     2   6     0.00   0.02   0.02     0.03   0.04  -0.01    -0.05   0.05   0.06
     3   6    -0.06  -0.03  -0.03     0.05   0.07   0.02    -0.07  -0.04  -0.03
     4   6    -0.05  -0.05  -0.02     0.01   0.00  -0.04     0.06  -0.05   0.14
     5   6    -0.04  -0.06   0.06    -0.04  -0.03   0.03    -0.03  -0.09   0.06
     6   6    -0.06  -0.04   0.00    -0.10   0.01   0.04    -0.08  -0.04  -0.03
     7   1    -0.08  -0.06  -0.01    -0.13   0.00   0.05    -0.11  -0.07  -0.05
     8   6     0.01   0.03  -0.03    -0.03   0.03   0.01    -0.05  -0.03  -0.05
     9   8     0.09   0.09  -0.08     0.02   0.03  -0.06    -0.05  -0.06  -0.09
    10   6     0.03   0.03  -0.03     0.05   0.03   0.06     0.01  -0.02  -0.03
    11   1    -0.49   0.13  -0.22     0.68  -0.37   0.35     0.62  -0.20   0.22
    12   1    -0.05  -0.03   0.01    -0.03   0.08   0.06    -0.04   0.01  -0.03
    13   1    -0.08  -0.04  -0.07     0.13   0.12   0.07    -0.15  -0.08  -0.18
    14   1    -0.04  -0.11  -0.04    -0.01  -0.06  -0.05     0.20   0.10   0.14
    15   1    -0.06  -0.03  -0.06     0.05   0.00  -0.11     0.07  -0.15   0.32
    16   1     0.02  -0.08   0.11    -0.01  -0.10   0.05    -0.01  -0.07   0.08
    17   1    -0.11  -0.05   0.11    -0.07  -0.03   0.05    -0.05  -0.19   0.06
    18   1     0.06   0.33  -0.32     0.06   0.11   0.08     0.01   0.02  -0.01
    19   1     0.37  -0.02   0.21     0.12   0.01   0.09     0.04  -0.03  -0.03
    20   1    -0.29  -0.18   0.03     0.07  -0.03   0.05     0.03  -0.04  -0.04
    21   8     0.02  -0.02   0.09    -0.04  -0.21  -0.09     0.17   0.21  -0.08
    22   8    -0.06  -0.04   0.00    -0.09   0.05   0.03    -0.06   0.00  -0.02
                     10                     11                     12
                      A                      A                      A
 Frequencies --    187.5022               205.5704               271.0722
 Red. masses --      6.5099                 2.9762                 2.5994
 Frc consts  --      0.1348                 0.0741                 0.1125
 IR Inten    --     36.4087                 4.2940                13.8776
  Atom  AN      X      Y      Z        X      Y      Z        X      Y      Z
     1   8     0.21  -0.18  -0.26     0.09   0.08  -0.02    -0.02   0.01   0.03
     2   6    -0.07  -0.07  -0.21    -0.05   0.06  -0.03     0.04   0.02   0.04
     3   6    -0.06   0.05  -0.09    -0.09   0.00  -0.07     0.02   0.03   0.04
     4   6     0.01   0.02   0.00     0.10   0.09   0.21    -0.01   0.01  -0.02
     5   6     0.02   0.01   0.23     0.02   0.05   0.00     0.05   0.03   0.22
     6   6     0.03   0.03   0.08     0.04   0.03  -0.03     0.05   0.06  -0.08
     7   1    -0.08   0.02   0.19     0.09   0.04  -0.06     0.05   0.01  -0.18
     8   6     0.04   0.00   0.09     0.02   0.00  -0.03     0.00   0.05  -0.08
     9   8    -0.04  -0.01   0.23    -0.02  -0.03  -0.01    -0.10  -0.10  -0.12
    10   6    -0.06  -0.02   0.08    -0.03  -0.03  -0.03    -0.04  -0.02  -0.03
    11   1     0.04   0.04  -0.01    -0.12   0.03   0.01    -0.02   0.07   0.00
    12   1    -0.05  -0.02  -0.28     0.06  -0.06  -0.08     0.02   0.06   0.09
    13   1    -0.09   0.02  -0.10    -0.22  -0.07  -0.22     0.06   0.05   0.09
    14   1     0.11  -0.08  -0.06     0.33   0.39   0.24    -0.06  -0.21  -0.08
    15   1    -0.05   0.07   0.00     0.09  -0.08   0.56    -0.07   0.13  -0.19
    16   1     0.21  -0.04   0.39    -0.05   0.13  -0.05     0.35   0.02   0.49
    17   1    -0.18   0.05   0.37     0.10  -0.05  -0.06    -0.29   0.02   0.46
    18   1    -0.06  -0.08   0.02    -0.04  -0.07  -0.05    -0.05  -0.09  -0.05
[...]
 4231139,-0.00768887,-0.02459518,-0.02288229,-0.00210911,-0.00043729,0.
 00234394,0.00028474,0.00011713,-0.00140166,0.00058647,-0.00464720,0.00
 852607,0.00135106,-0.00055000,-0.00117175,0.01218389,-0.01285115,-0.00
 005825,-0.00862377,0.00905702,0.00482519,-0.00163046,0.00324666,-0.000
 11018,0.00051865,0.00005597,-0.00051899,0.04114140,-0.01837155,0.09337
 503,0.00101005,0.00030222,0.00131532,-0.00036799,0.01269691,-0.0033415
 8,-0.08599278,0.08527055,0.01542958,-0.02044653,0.01704865,0.01246222,
 -0.00176063,0.00008198,0.00137167,-0.00048786,-0.00121025,-0.00030656,
 0.00013320,-0.00002503,-0.00013544,0.00056374,-0.00042920,0.00057178,-
 0.00045504,0.00036695,-0.00032500,-0.00005647,0.00009503,-0.00032226,0
 .00047137,-0.00020311,-0.00065959,0.00291670,-0.00268908,-0.00064717,0
 .10546648,0.00044775,0.00250890,-0.00275586,0.01258294,-0.03083947,0.0
 1706395,0.09088468,-0.15996712,-0.01807063,0.00834450,0.00071835,-0.00
 408755,-0.00097101,0.00037971,0.00062793,-0.00024138,-0.00033641,-0.00
 049362,0.00002106,-0.00006650,0.00003784,0.00024047,-0.00050907,-0.000
 63891,-0.00010488,0.00022529,0.00056645,-0.00007081,0.00027324,0.00031
 867,-0.00001107,-0.00017377,-0.00011119,0.00150179,-0.01017489,-0.0038
 0475,-0.11107347,0.19651963,0.00267628,0.00026814,-0.00158977,-0.01319
 314,0.02413595,-0.00162985,0.01688116,-0.02332502,-0.03095601,0.014028
 65,-0.00980180,-0.00281550,0.00145609,0.00018111,-0.00089474,-0.000079
 77,-0.00024114,-0.00044527,0.00008535,-0.00003891,-0.00003858,0.000590
 13,-0.00067507,0.00012192,-0.00037752,0.00056245,0.00003110,-0.0001289
 6,0.00027251,0.00000790,0.00009960,-0.00014964,-0.00019478,0.00187156,
 -0.00647033,-0.00070525,-0.02487180,0.01371493,0.03850690,0.00056024,-
 0.00053714,-0.00005122,-0.00206041,0.00012990,0.00251966,-0.00286223,-
 0.00651100,0.02214882,-0.04488474,0.01429504,-0.04566495,-0.00627674,0
 .01312927,-0.01182775,-0.00004749,0.00008008,-0.00012592,-0.00002843,-
 0.00005740,-0.00003608,0.00079153,-0.00091900,0.00038430,-0.00028258,0
 .00114506,-0.00008666,-0.00023815,0.00017345,0.00001008,0.00002507,-0.
 00000982,-0.00001583,-0.00012364,-0.00019045,0.00137169,-0.00007798,-0
 .00018053,0.00052404,0.06081773,0.00011467,0.00010417,-0.00041583,-0.0
 0044251,0.00019542,0.00105379,-0.00273925,0.00106300,0.00770465,0.0130
 0922,-0.04709072,0.04335412,0.01552427,-0.01821851,0.02146944,0.000182
 78,-0.00024939,0.00035617,0.00003151,-0.00001123,0.00000780,0.00036448
 ,-0.00136023,-0.00037418,0.00014660,0.00076982,0.00020616,-0.00015788,
 0.00027785,0.00022099,-0.00005337,-0.00001280,0.00006305,-0.00111313,-
 0.00042411,0.00088505,0.00005507,0.00040437,-0.00029169,-0.02103426,0.
 06277736,-0.00023382,-0.00012478,0.00049466,0.00132248,0.00140961,-0.0
 0175397,0.01046690,0.00701755,-0.02772327,-0.04501531,0.04613608,-0.18
 340518,-0.00578585,0.00855393,-0.00229576,0.00025484,0.00019842,-0.000
 02419,-0.00008052,-0.00002473,-0.00006114,0.00088572,-0.00122454,0.001
 19304,-0.00018494,0.00137417,-0.00073047,-0.00016631,0.00032850,-0.000
 33977,0.00007690,0.00001953,-0.00006349,0.00064782,0.00052321,0.000452
 80,0.00072809,-0.00018372,-0.00025516,0.04724388,-0.06124892,0.2279518
 3,0.00012584,-0.00001061,0.00028716,-0.00120132,0.00164165,-0.00132586
 ,-0.02871020,-0.01984728,0.00604987,-0.09718588,-0.07658068,-0.0397630
 2,0.00639710,0.00684740,0.00265950,-0.00095616,0.00142932,0.00020659,0
 .00022638,0.00011945,0.00008466,-0.00005279,-0.00010885,-0.00048225,0.
 00005808,0.00001900,0.00016552,-0.00006062,0.00011848,0.00018277,-0.00
 003397,0.00002181,0.00009220,-0.00077690,-0.00157071,0.00039236,-0.000
 52407,0.00003864,0.00024632,-0.00429110,-0.00611018,-0.00983514,0.1260
 3065,-0.00010389,0.00025895,-0.00053209,-0.00024397,-0.00080090,0.0008
 7506,-0.01221332,-0.00260767,0.00180754,-0.07444452,-0.12239404,-0.044
 73941,-0.00615914,-0.03434486,-0.01139612,0.00104769,-0.00223110,-0.00
 014913,-0.00019357,-0.00029249,-0.00005791,0.00008923,-0.00023283,-0.0
 0010664,0.00003461,0.00016769,0.00013484,-0.00003406,0.00011408,0.0001
 2643,-0.00007886,-0.00000710,0.00009951,-0.00030208,-0.00033428,-0.000
 01304,0.00007708,0.00057978,-0.00000923,-0.00119781,0.00387150,-0.0020
 7243,0.09288736,0.15936114,-0.00041356,0.00015160,-0.00086680,0.002252
 48,-0.00132868,0.00245531,0.01216706,0.00994309,0.00052591,-0.04028234
 ,-0.04822938,-0.05705267,-0.00029628,-0.00537363,0.00148565,0.00004993
 ,0.00016488,0.00019469,-0.00001272,-0.00002174,0.00001465,-0.00017797,
 0.00013636,0.00011634,0.00004818,-0.00010369,-0.00011114,0.00006727,0.
 00002192,-0.00003956,0.00001348,-0.00002895,-0.00003623,0.00048173,0.0
 0091889,-0.00019302,0.00006999,0.00013215,0.00037844,-0.01595338,-0.01
 257629,-0.01383081,0.04195447,0.05631042,0.06602837,-0.00001615,0.0001
 4747,-0.00050177,-0.00010948,0.00004715,0.00081576,-0.00059058,0.00093
 583,-0.00005607,-0.01488156,0.01244582,0.01443572,-0.10549839,-0.00158
 060,0.08683277,-0.01973938,-0.01244123,0.01527375,-0.00003414,-0.00061
 646,0.00007237,-0.00190552,-0.00173231,-0.00190547,0.00024900,0.000019
 22,0.00037606,-0.00044197,0.00041510,0.00053032,-0.00003969,-0.0000472
 4,0.00004567,-0.00015600,0.00001201,0.00023227,-0.00016278,0.00006430,
 0.00014690,-0.00039016,0.00048132,-0.00004271,0.00014463,0.00046456,0.
 00014545,0.13827874,0.00003695,-0.00001306,-0.00004247,-0.00007346,-0.
 00014479,0.00021043,0.00178721,-0.00236970,-0.00027082,0.01883891,-0.0
 0701970,-0.01657884,-0.00193301,-0.03419634,0.00208650,-0.01749936,-0.
 00483273,0.01357713,-0.00041257,-0.00066041,-0.00001804,-0.00194275,0.
 00055741,-0.00049935,0.00029760,-0.00060447,0.00018853,0.00047871,0.00
 001381,0.00025835,0.00001211,-0.00002836,-0.00006990,0.00002232,-0.000
 37988,-0.00000462,0.00029261,0.00009114,-0.00027898,0.00074485,0.00015
 872,-0.00016298,0.00037492,-0.00069479,-0.00039162,0.00293061,0.048202
 61,-0.00003059,-0.00005030,0.00015930,0.00008965,-0.00002643,-0.000154
 08,-0.00054185,-0.00005571,0.00011694,0.00899418,-0.00745722,-0.002743
 31,0.09006990,0.00218918,-0.13978569,0.00718319,0.00528501,0.00046592,
 -0.00008903,0.00008481,-0.00015515,-0.00082671,-0.00093099,0.00171096,
 0.00002524,0.00022343,-0.00056953,0.00058166,0.00051830,-0.00061772,0.
 00007203,0.00000315,-0.00006804,0.00012085,-0.00001696,0.00024466,0.00
 008659,-0.00004862,0.00006180,-0.00027122,0.00030876,0.00080105,-0.000
 00276,-0.00034888,-0.00011916,-0.11159447,-0.00074982,0.16492706,-0.00
 011435,0.00013499,-0.00038068,-0.00180408,0.00021501,0.00177227,0.0001
 7697,-0.00004467,-0.00023827,-0.01266978,0.01430188,-0.01393902,-0.087
 46612,0.01144554,-0.08004911,-0.01890735,-0.01152622,-0.01937855,0.000
 44643,-0.00036016,-0.00003168,-0.00095728,-0.00181794,-0.00030400,0.00
 020363,0.00026937,0.00021069,-0.00002660,0.00028288,0.00002453,-0.0001
 0652,-0.00003953,0.00012659,-0.00032272,-0.00004187,-0.00018597,-0.000
 02200,0.00014801,-0.00002048,-0.00056717,0.00156915,-0.00007982,0.0005
 8516,0.00002995,-0.00004741,0.00663255,-0.00076773,0.00785217,0.113711
 05,0.00007985,-0.00022256,0.00016370,0.00026672,0.00083442,-0.00045264
 ,-0.00034789,-0.00050848,0.00021761,0.01920572,-0.01266159,0.01741226,
 0.01143829,-0.03469460,0.01667814,-0.01757076,-0.00417380,-0.01653539,
 -0.00074696,-0.00045558,-0.00065291,-0.00148187,-0.00182581,0.00055814
 ,0.00008758,0.00038628,-0.00024272,0.00041221,-0.00002818,-0.00036122,
 -0.00004669,-0.00000107,-0.00003856,-0.00004077,0.00015511,-0.00009185
 ,-0.00000808,0.00002258,0.00002055,0.00135800,-0.00224860,-0.00002363,
 0.00048256,-0.00061797,0.00059301,0.00022278,0.00376513,0.00174540,-0.
 01379920,0.05268195,-0.00021682,0.00047152,-0.00116838,0.00114747,-0.0
 0037978,0.00228076,-0.00009013,-0.00036628,-0.00104183,-0.00720792,0.0
 0816245,-0.00030685,-0.08247643,0.01613125,-0.15594329,-0.01245299,-0.
 00724472,-0.00359162,0.00013562,-0.00026880,0.00053006,-0.00052662,0.0
 0027553,-0.00055118,0.00026384,-0.00019280,0.00012549,0.00016987,0.000
 14064,0.00021620,0.00004005,0.00000035,0.00006369,-0.00004719,0.000388
 18,0.00016203,0.00001950,0.00001244,-0.00000162,-0.00017250,-0.0001449
 8,0.00006421,0.00026442,0.00020244,0.00052307,-0.00442047,0.00279002,-
 0.02500427,0.10478580,-0.01927666,0.18504497,-0.00003210,0.00007811,-0
 .00043999,0.00015802,0.00035015,0.00098444,-0.00024133,-0.00040395,-0.
 00039416,0.00003858,-0.00005180,-0.00002625,-0.00051938,0.00008564,-0.
 00002598,0.00047424,0.00014995,0.00031043,0.00016972,-0.00016130,0.000
 20792,-0.02214481,0.01516819,0.00941973,0.00124617,-0.00071267,0.00023
 990,-0.21859250,0.00953289,-0.00997796,-0.00000036,-0.00003847,0.00003
 715,-0.00004237,0.00055428,0.00037311,-0.00002625,0.00005133,0.0000331
 1,0.00004183,0.00005346,0.00001267,0.00003574,0.00001830,-0.00001288,0
 .00025074,-0.00012330,-0.00014078,0.00008968,-0.00010030,-0.00003586,0
 .26545271,0.00001147,-0.00008202,0.00024267,-0.00000711,-0.00003644,-0
 .00040518,-0.00010984,-0.00005027,0.00013705,0.00006753,-0.00004963,-0
 .00001493,-0.00016919,-0.00002760,0.00027150,0.00003005,-0.00082232,-0
 .00068929,0.00003331,0.00040350,-0.00005710,0.02498463,-0.00457454,-0.
 00583759,0.00011699,-0.00302960,-0.00082646,0.00860936,-0.03130633,0.0
 0000507,0.00005102,0.00005557,-0.00007944,0.00003061,0.00002336,-0.000
 10925,0.00000240,-0.00002755,-0.00001807,0.00001447,-0.00002860,-0.000
 04579,-0.00001504,-0.00001969,-0.00002123,-0.00006371,-0.00018191,-0.0
 0031581,-0.00004464,-0.00001560,-0.00007503,-0.01715470,0.03732392,-0.
 00001111,0.00003698,0.00013704,-0.00000245,-0.00037433,-0.00036480,-0.
 00007184,0.00027645,-0.00003333,0.00000728,0.00002306,-0.00003448,-0.0
 0018715,0.00021689,-0.00021090,0.00014331,-0.00116698,-0.00130432,0.00
 017226,-0.00021847,-0.00067192,0.01787410,-0.00385158,0.00258587,0.000
 22973,-0.00257557,-0.00101945,-0.01047258,-0.00015120,-0.03623720,0.00
 004083,0.00001117,0.00000601,0.00009680,-0.00025514,0.00021272,0.00005
 269,-0.00003304,0.00001962,0.00001890,0.00000116,0.00008124,-0.0000223
 3,-0.00001008,0.00000070,-0.00002219,-0.00020718,0.00005140,-0.0000123
 1,-0.00009357,-0.00005870,0.00764968,0.00475829,0.03716607,-0.00001584
 ,0.00000379,0.00000216,0.00007334,0.00003600,0.00016373,-0.00011220,-0
 .00022268,-0.00002793,0.00008420,-0.00000256,-0.00002707,-0.00022384,0
 .00004430,0.00005902,-0.00012220,-0.00023529,-0.00020900,0.00015783,-0
 .00012859,-0.00020477,0.00933878,0.00494092,-0.00150116,-0.00311928,0.
 00090698,0.00039541,-0.05581941,-0.05666982,0.01990126,0.00014433,0.00
 005545,-0.00008654,0.00004970,0.00018232,-0.00015617,-0.00002204,-0.00
 001839,-0.00001474,0.00000317,-0.00001333,-0.00001063,-0.00000346,-0.0
 0000060,-0.00000564,0.00002011,-0.00008845,-0.00007397,0.00001917,-0.0
 0004868,-0.00003785,-0.01513317,-0.01985434,0.00690724,0.06014099,0.00
 000546,-0.00014704,0.00049622,0.00001153,-0.00010844,-0.00090747,0.000
 03837,0.00012000,0.00046542,0.00009215,-0.00000107,-0.00002352,0.00023
 152,0.00003833,0.00063676,0.00106033,0.00047517,-0.00109607,-0.0001603
 1,0.00032842,-0.00037223,-0.00005936,-0.04111900,-0.00579508,0.0002085
 8,0.00173751,-0.00088811,-0.05992597,-0.17429647,0.04933693,0.00012837
 ,0.00017825,-0.00014789,0.00008347,-0.00032008,-0.00041859,0.00000359,
 -0.00007114,-0.00005062,-0.00003229,-0.00007031,-0.00003415,-0.0000407
 7,-0.00002801,-0.00000156,-0.00012026,-0.00005872,-0.00002830,-0.00000
 565,0.00009987,-0.00006837,-0.00786096,-0.00151213,0.00204960,0.069004
 29,0.22005902,-0.00002322,0.00004140,0.00005651,0.00002187,-0.00026384
 ,-0.00034245,-0.00006346,0.00041460,0.00001983,-0.00002290,0.00002239,
 -0.00001855,0.00013998,0.00020541,0.00001171,0.00071797,0.00023155,-0.
 00130158,-0.00029227,-0.00065820,-0.00058685,-0.00431713,-0.01288867,0
 .00841660,0.00195045,-0.00093106,-0.00166152,0.01960877,0.04721451,-0.
 05001431,-0.00004194,-0.00003526,0.00012599,0.00015830,-0.00031467,0.0
 0040444,0.00008891,-0.00001481,0.00003601,0.00001737,-0.00000498,0.000
 05906,-0.00001325,-0.00001400,0.00000526,-0.00000002,-0.00002820,0.000
 09688,0.00000551,-0.00000093,-0.00001294,0.00162658,0.00075910,0.00397
 427,-0.02445827,-0.05388486,0.05309666,-0.00000991,-0.00001367,0.00007
 884,0.00005595,-0.00005214,-0.00008716,-0.00015565,-0.00004733,0.00000
 002,0.00006219,-0.00001556,-0.00003141,0.00001590,0.00003756,0.0003549
 4,0.00029986,0.00133292,0.00020575,-0.00000051,0.00006222,-0.00010434,
 0.00798524,-0.00072651,0.00993664,-0.00143993,0.00034334,-0.00105657,-
 0.04961565,0.00620462,-0.04541063,0.00007472,0.00001524,-0.00002586,0.
 00013426,0.00007413,0.00003931,0.00001767,-0.00001680,0.00000299,0.000
 01659,-0.00002142,-0.00000094,-0.00000373,-0.00000918,-0.00000619,-0.0
 0000041,-0.00005073,-0.00009183,0.00002316,0.00002320,-0.00003036,-0.0
 1131326,0.00381007,-0.02166681,0.00524689,-0.00197611,0.00544360,0.049
 07972,-0.00001044,-0.00006131,-0.00003376,0.00005960,0.00036799,0.0001
 3165,0.00000268,-0.00020693,0.00016839,0.00005238,-0.00002230,0.000027
 17,-0.00017753,0.00000297,0.00007192,0.00092651,-0.00156451,-0.0013941
 3,0.00006372,0.00000173,0.00011032,-0.00108823,-0.00018735,-0.02548672
 ,-0.00047187,-0.00020479,0.00129208,0.00645294,-0.03743251,0.02120582,
 0.00001565,0.00002302,-0.00002905,-0.00009608,0.00016031,-0.00024599,-
 0.00002939,0.00000022,-0.00002788,-0.00001658,-0.00001799,-0.00010494,
 -0.00000314,-0.00000534,-0.00001358,-0.00000732,-0.00000233,-0.0001638
 6,-0.00001817,-0.00002711,-0.00001541,0.00112422,0.00387941,0.00094968
 ,0.00220984,-0.00531831,0.01951065,-0.00904342,0.04102043,-0.00000341,
 -0.00007656,0.00038083,-0.00003591,-0.00019630,-0.00087353,0.00011904,
 0.00040146,0.00045467,-0.00001272,0.00002543,-0.00001817,0.00006522,0.
 00006939,0.00004644,0.00012280,-0.00080358,-0.00068994,0.00000299,0.00
 003390,0.00001108,0.00448169,-0.01613423,-0.03089788,-0.00208569,0.002
 51475,-0.00011069,-0.04511131,0.01849635,-0.20276636,0.00003737,0.0000
 2957,-0.00003586,0.00005027,-0.00053123,-0.00042412,0.00004623,-0.0000
 7403,-0.00002313,-0.00002686,-0.00006817,0.00001230,-0.00003228,-0.000
 03275,0.00001060,-0.00007136,-0.00005905,-0.00000052,-0.00004099,-0.00
 000398,-0.00003014,-0.00872989,0.00154950,-0.00488915,-0.00068117,0.00
 985103,-0.01227386,0.05222558,-0.01540925,0.25145484,0.00020628,-0.001
 23172,0.00019408,-0.00130959,0.00232615,-0.00357206,0.00095876,0.00312
 333,0.00236085,-0.00090386,-0.00022687,-0.00001054,0.00046429,-0.00080
 606,0.00004629,-0.00754178,-0.00484475,0.00493526,-0.00140266,0.001393
 27,-0.00060405,-0.00152029,0.00184133,-0.00046260,0.00144763,-0.001098
 13,0.00025412,0.00005834,-0.00091364,0.00089837,-0.05563188,0.01899631
 ,0.10311534,0.00114886,-0.00278568,0.00127911,0.00048452,0.00005636,0.
 00027462,0.00001066,-0.00000763,0.00004213,-0.00001853,-0.00008045,0.0
 0002330,-0.00002587,0.00001996,-0.00006394,-0.00005414,0.00010036,0.00
 002794,0.00005420,0.00012763,-0.00020459,0.00005550,0.00009864,-0.0005
 8845,-0.00003726,0.00005100,-0.00011389,0.06494929,-0.00090887,-0.0036
 5012,0.00229567,-0.00082389,0.00278482,-0.01695152,-0.00195643,0.01111
 599,0.00565009,-0.00202060,-0.00070005,-0.00041926,0.00268615,-0.00078
 804,-0.00204773,-0.01307367,0.00109397,0.00921648,-0.00044537,0.001454
 27,0.00020214,0.00082608,0.00330272,0.00164729,-0.00074398,-0.00184665
 ,-0.00059149,-0.00098040,-0.00150929,0.00006218,0.01127983,-0.00934005
 ,-0.02329777,0.00648291,-0.00359528,0.00425021,0.00274850,0.00049822,0
 .00114889,0.00013916,-0.00018353,0.00031891,-0.00022845,-0.00037261,0.
 00012263,-0.00003698,0.00030685,0.00026660,-0.00045620,0.00006961,-0.0
 0004335,0.00012379,0.00023543,-0.00008179,0.00051603,0.00018622,-0.000
 49107,0.00024234,0.00011198,-0.00008061,-0.00572672,0.02346825,-0.0003
 9265,-0.00233729,0.00174820,-0.00040414,0.00403164,-0.00526447,0.00086
 125,0.00240222,0.00425438,-0.00040442,-0.00029371,-0.00029786,0.000738
 58,0.00004834,-0.00010838,0.00187863,0.00303487,0.00012409,0.00021773,
 0.00035133,-0.00030420,-0.00082659,0.00001601,-0.00030755,0.00038128,0
 .00060991,-0.00054845,0.00081002,0.00001591,-0.00059019,0.09852882,-0.
 03592463,-0.18434892,0.00135846,-0.00412641,-0.00004059,0.00047944,-0.
 00001673,0.00017531,0.00000762,-0.00008515,0.00001092,-0.00013348,-0.0
 0008421,0.00004803,-0.00005533,0.00008863,0.00007328,-0.00007508,0.000
 13652,-0.00017007,-0.00016667,0.00002662,0.00002570,-0.00035498,0.0001
 4493,0.00032530,-0.00007910,0.00000239,0.00017354,-0.10545266,0.024379
 78,0.18907676,0.00670059,0.00038897,0.00254515,-0.03104728,-0.00491209
 ,-0.00603177,0.03591043,0.01272713,0.01852912,-0.00497018,0.00000385,0
 .00155684,-0.04143879,-0.01618443,0.01973173,-0.17423173,0.03370813,0.
 06877821,-0.02874884,0.01536969,0.01456289,-0.00502977,0.00283514,0.01
 557308,0.00523287,-0.00238720,-0.00134835,0.00216264,0.00130096,0.0027
 0825,-0.00146201,-0.00508596,-0.00281147,-0.02815308,-0.02514865,-0.01
 989859,-0.00066084,-0.00169320,-0.00023012,-0.00013811,0.00015994,-0.0
 0024713,0.00021434,0.00041388,-0.00006519,-0.00158424,-0.00294382,-0.0
 0134663,0.00112941,0.00051525,0.00086067,0.00003359,-0.00046994,-0.000
 51889,-0.00076246,-0.00078558,0.00004126,-0.00043636,0.00000334,-0.000
 20589,-0.00140913,0.00233976,0.00308662,0.26871105,-0.00271092,0.01619
 702,-0.03436206,-0.00489434,-0.03637457,0.03615211,-0.02352451,-0.1142
 1676,-0.05459477,0.00500560,-0.00138738,0.00247203,-0.02282283,0.00384
 295,0.01222030,0.02076181,-0.05149471,-0.01298891,0.02701146,-0.010142
 74,-0.01384972,0.00838757,-0.00355516,-0.00585717,-0.00349074,0.006160
 74,0.00203345,-0.00017866,0.00151188,-0.00366233,0.00210000,-0.0059653
 7,-0.00640158,0.02072205,0.00277315,0.04340269,-0.00337694,-0.00005401
 ,0.00107308,-0.00052519,0.00029456,-0.00062862,0.00053401,0.00063189,-
 0.00040378,-0.00153936,-0.00190694,-0.00043183,0.00052444,-0.00053282,
 -0.00049791,-0.00068203,-0.00015571,0.00069530,-0.00061602,-0.00017183
 ,0.00113040,-0.00017269,-0.00051645,0.00049780,-0.01038201,-0.02265471
 ,0.00757734,-0.01013281,0.21771662,-0.00185361,-0.01123853,-0.05483896
 ,-0.01220618,0.05509700,0.01953131,0.02208188,-0.01407946,0.05094065,-
 0.00079966,-0.00227654,-0.00325691,0.01329406,0.00868662,0.00257500,0.
 07468057,-0.02003882,-0.10624073,0.00397842,-0.00178750,0.00304528,0.0
 2798912,-0.00759979,-0.04504959,0.00061435,-0.00146543,0.00114157,-0.0
 0283300,-0.00460439,-0.00540036,0.00204158,0.00562825,-0.00232491,-0.0
 0576303,-0.02598562,-0.04094599,-0.00211653,-0.00214412,0.00021097,-0.
 00001681,-0.00042231,-0.00063463,-0.00097772,0.00000924,0.00046011,-0.
 00023688,0.00016220,0.00050730,0.00000528,0.00024855,-0.00112842,-0.00
 094483,0.00074516,0.00056396,0.00042100,0.00073603,-0.00041626,0.00030
 495,-0.00054601,0.00048961,-0.00237590,-0.00554921,-0.00405519,-0.1152
 7401,0.02640915,0.18483388\\-0.00000005,0.00000048,-0.00000083,0.00000
 016,-0.00000033,0.00000050,0.00000030,0.00000016,-0.00000020,-0.000000
 44,-0.00000004,0.00000056,0.00000012,-0.00000016,-0.00000030,-0.000000
 55,0.00000008,-0.00000010,-0.00000008,0.00000023,-0.00000012,-0.000000
 44,0.00000076,0.00000029,0.00000075,-0.00000073,0.00000039,-0.00000021
 ,-0.00000022,0.00000016,-0.00000050,0.00000018,0.00000071,0.00000030,-
 0.00000026,0.00000024,0.00000024,-0.00000037,-0.00000007,0.00000005,-0
 .00000002,0.00000004,-0.00000027,-0.00000031,-0.00000014,-0.00000024,0
 .00000003,0.00000032,-0.00000009,0.00000002,-0.00000012,0.00000005,0.0
 0000001,-0.00000002,0.00000009,0.00000026,-0.00000010,0.00000001,0.000
 00002,0.00000004,0.00000064,0.00000006,-0.00000077,0.00000013,0.000000
 15,-0.00000048\\\@


 "WOULD YOU TELL ME PLEASE, WHICH WAY I OUGHT TO WALK FROM HERE?"
 "THAT DEPENDS A GREAT DEAL ON WHERE YOU WANT TO GO," SAID THE CAT.
 "I DON'T MUCH CARE WHERE -- ", SAID ALICE.
 "THEN IT DOESN'T MATTER WHICH WAY YOU WALK," SAID THE CAT.

                                      -- LEWIS CARROLL
 Job cpu time:       0 days  0 hours  0 minutes  2.0 seconds.
 File lengths (MBytes):  RWF=     58 Int=      0 D2E=      0 Chk=      2 Scr=      1
 Normal termination of Gaussian 09 at Thu Feb 18 21:41:02 2021.
