22
Properties=species:S:1:pos:R:3:momenta:R:3:forces:R:3 pbc="F F F"
O       -0.63811096       0.34798674       3.16174378       1.16902309       1.63585413      -0.51416867       0.09187363       0.00311825       0.04761099
C       -0.65345443       0.86683149       2.11759707      -0.03460775       1.33651472       0.60116810      -0.18222478      -0.01864798      -0.15832398
C       -0.71216091       1.84884892       1.12467335       0.62129871       1.03970345      -2.55162272      -0.51467818      -1.31942042       0.10614693
C        0.53258831       1.96404794       0.26234072      -1.05862429       1.40546852       0.72994409      -0.16403181      -0.08821751       0.27368832
C        1.29309760       0.62232726       0.19363734       1.57604690       0.01231070       0.21123579       0.13802354       0.02286630      -0.11923234
C        0.33760239      -0.57969674       0.06589193       0.42970499       0.00004253       0.59143533      -0.15377818       0.29116074       0.36037864
H        0.77445966      -1.52721693       0.44207139      -0.11475468       0.13258062       0.51806826      -0.06699643       0.00184680      -0.01213439
C       -0.19950399      -0.69182229      -1.37956738       0.38169772       0.67062192       1.13308803       0.12480320      -0.24665941       0.14293275
O       -1.04935144       0.08505573      -1.75413211      -0.15110791       0.77363056       0.02540501      -0.13784798       0.20858729      -0.03996751
C        0.37427909      -1.78120761      -2.21966296      -0.71732247      -0.59424292       1.05658947      -0.02156549       0.03858881      -0.06529185
H       -1.93352332      -2.04556800       1.71138654       0.18500721       0.26227683      -0.19396159       0.08453761      -0.17360196      -0.14700658
H       -1.37949545       0.77648177       0.27573389       0.38929926      -0.14753569      -0.07653507       0.79320451       0.62722610      -0.03610378
H       -1.30333394       2.74308743       1.26495808      -0.71921498      -0.02258941       0.25592732      -0.01357023       0.14497917      -0.03522978
H        0.23315853       2.28352969      -0.75851065       0.09386758       0.28011873      -0.28302538       0.00923937      -0.00598495      -0.08149845
H        1.19842448       2.75608621       0.65683494       0.05648598       0.37012714      -0.08550034       0.04178753      -0.03343601      -0.00860680
H        2.00949480       0.63579856      -0.64890711      -0.79838928       0.06809031       0.65844924       0.05982340      -0.01062861       0.01520229
H        1.91353550       0.49648031       1.10275623      -0.24123237       0.15529000       0.10328723      -0.05212715      -0.04527300       0.00400144
H        1.46704358      -1.84140472      -2.16411751      -0.55204318       0.12323110       0.46180740      -0.02141651      -0.00939613       0.01873851
H       -0.02354778      -2.75819786      -1.88958451      -0.10877910       0.43811407      -0.02537012      -0.01095947      -0.03184376       0.02657340
H        0.09234817      -1.66958534      -3.27799972       0.03153697      -0.28828807      -0.47586548      -0.01874617      -0.03196469      -0.01086887
O       -1.47859109      -2.19438554       0.87092739       0.94396555       1.01561592       0.86867116      -0.99204013      -1.57625400       0.08968749
O       -0.85495878      -0.33747702       0.84192928      -0.36955125       0.50028456       0.65230741       1.00668972       2.25295497      -0.37069644
