22
Properties=species:S:1:pos:R:3 energy=-15620.830549439332 pbc="F F F"
O       -1.36644971       2.53886073       2.64714827
C       -0.81744996       2.54714301       1.64345424
C       -0.53127270       2.68040980       0.27936570
C        0.78186290       2.10481394      -0.22933729
C        0.83505252       0.58069531      -0.05611921
C       -0.29148978      -0.11281427      -0.83004489
H       -0.26120959      -1.20195023      -0.68014436
C       -0.36083222       0.24553603      -2.31150568
O       -0.73819435       1.34766216      -2.62022128
C       -0.02440116      -0.77948544      -3.33947881
H       -2.67355101      -0.68131662       0.75979046
H       -1.41166583       1.85449772      -0.40735060
H       -0.74273362       3.70017265      -0.08705434
H        0.86341850       2.37059961      -1.30831167
H        1.63833916       2.57260163       0.28144109
H        1.82535263       0.18915532      -0.36795025
H        0.71047013       0.32753790       1.02916470
H       -0.16451889      -1.82192419      -3.06403977
H       -0.70522523      -0.55571082      -4.19009089
H        1.02952889      -0.67883814      -3.64144447
O       -2.43248177      -0.86525593      -0.17658394
O       -1.50400191       0.41913381      -0.25905901
