9
Properties=species:S:1:pos:R:3 energy=-724.8416681181226 pbc="F F F"
C       -7.07514200       0.65495800       1.06400100
C       -5.69546900       1.06081800       1.39239500
H       -7.63845500       0.35288200       1.96448500
H       -7.08869600      -0.19820000       0.37349600
H       -7.63338400       1.47492600       0.59401900
C       -4.84196200       1.20875600       2.37857800
H       -3.82854600       1.55987400       2.21736600
O       -5.02316200       0.96753600       3.76216600
H       -5.95123800       0.64481300       3.91879700
9
Properties=species:S:1:pos:R:3 energy=-724.8617561338018 pbc="F F F"
C       -7.07264186       0.65575908       1.06409927
C       -5.69925827       1.05928404       1.39467908
H       -7.63816758       0.35298856       1.96439649
H       -7.08858826      -0.19826425       0.37334016
H       -7.63334503       1.47507453       0.59388936
C       -4.84127843       1.20895975       2.37872206
H       -3.82816180       1.55992800       2.21791051
O       -5.02368788       0.96773267       3.75936939
H       -5.95092489       0.64490063       3.91889669
9
Properties=species:S:1:pos:R:3 energy=-724.8778986926492 pbc="F F F"
C       -7.07045413       0.65646045       1.06418236
C       -5.70257359       1.05793522       1.39672885
H       -7.63791206       0.35308374       1.96431549
H       -7.08849180      -0.19831955       0.37320293
H       -7.63330863       1.47520517       0.59377478
C       -4.84069340       1.20913721       2.37882223
H       -3.82782036       1.55997636       2.21839212
O       -5.02415287       0.96790593       3.75690102
H       -5.95064716       0.64497848       3.91898321
9
Properties=species:S:1:pos:R:3 energy=-724.890838931629 pbc="F F F"
C       -7.06855436       0.65706991       1.06425154
C       -5.70545205       1.05675718       1.39856163
H       -7.63768604       0.35316840       1.96424149
H       -7.08840580      -0.19836664       0.37308288
H       -7.63327465       1.47531933       0.59367411
C       -4.84019893       1.20929044       2.37888246
H       -3.82751844       1.56001951       2.21881567
O       -5.02456163       0.96805759       3.75473561
H       -5.95040211       0.64504728       3.91905761
9
Properties=species:S:1:pos:R:3 energy=-724.9011991986848 pbc="F F F"
C       -7.06691807       0.65759527       1.06430804
C       -5.70793078       1.05573555       1.40019477
H       -7.63748709       0.35324339       1.96417396
H       -7.08832940      -0.19840623       0.37297855
H       -7.63324293       1.47541838       0.59358618
C       -4.83978705       1.20942153       2.37890671
H       -3.82725280       1.56005786       2.21918597
O       -5.02491884       0.96818945       3.75284789
H       -5.95018704       0.64510779       3.91912094
9
Properties=species:S:1:pos:R:3 energy=-724.9094946705213 pbc="F F F"
C       -7.06552083       0.65804432       1.06435310
C       -5.71004690       1.05485598       1.40164558
H       -7.63731279       0.35330958       1.96411240
H       -7.08826177      -0.19843903       0.37288853
H       -7.63321330       1.47550371       0.59350984
C       -4.83944979       1.20953256       2.37889891
H       -3.82702019       1.56009183       2.21950784
O       -5.02522917       0.96830332       3.75121257
H       -5.94999926       0.64516074       3.91917424
9
Properties=species:S:1:pos:R:3 energy=-724.916147440458 pbc="F F F"
C       -7.06433816       0.65842485       1.06438797
C       -5.71183752       1.05410410       1.40293141
H       -7.63716073       0.35336780       1.96405627
H       -7.08820206      -0.19846578       0.37281136
H       -7.63318563       1.47557671       0.59344393
C       -4.83917917       1.20962558       2.37886302
H       -3.82681738       1.56012186       2.21978611
O       -5.02549729       0.96840102       3.74980437
H       -5.94983606       0.64520686       3.91921855
9
Properties=species:S:1:pos:R:3 energy=-724.9215005846706 pbc="F F F"
C       -7.06334562       0.65874467       1.06441391
C       -5.71333975       1.05346553       1.40406958
H       -7.63702850       0.35341893       1.96400508
H       -7.08814944      -0.19848718       0.37274561
H       -7.63315974       1.47563875       0.59338728
C       -4.83896721       1.20970269       2.37880300
H       -3.82664111       1.56014835       2.22002559
O       -5.02572787       0.96848434       3.74859803
H       -5.94969476       0.64524691       3.91925492
9
Properties=species:S:1:pos:R:3 energy=-724.9258314726619 pbc="F F F"
C       -7.06251874       0.65901158       1.06443214
C       -5.71459072       1.05292592       1.40507743
H       -7.63691366       0.35346381       1.96395829
H       -7.08810307      -0.19850396       0.37268985
H       -7.63313549       1.47569123       0.59333874
C       -4.83880595       1.20976596       2.37872278
H       -3.82648814       1.56017173       2.22023112
O       -5.02592559       0.96855511       3.74756826
H       -5.94957266       0.64528162       3.91928439
9
Properties=species:S:1:pos:R:3 energy=-724.9293645555329 pbc="F F F"
C       -7.06183306       0.65923336       1.06444391
C       -5.71562753       1.05247091       1.40597229
H       -7.63681381       0.35350330       1.96391539
H       -7.08806209      -0.19851683       0.37264264
H       -7.63311271       1.47573553       0.59329715
C       -4.83868740       1.20981746       2.37862631
H       -3.82635523       1.56019242       2.22040751
O       -5.02609511       0.96861513       3.74668979
H       -5.94946706       0.64531172       3.91930801
9
Properties=species:S:1:pos:R:3 energy=-724.9322826259861 pbc="F F F"
C       -7.06126412       0.65941783       1.06445048
C       -5.71648731       1.05208612       1.40677149
H       -7.63672653       0.35353825       1.96387586
H       -7.08802568      -0.19852652       0.37260253
H       -7.63309125       1.47577304       0.59326135
C       -4.83860360       1.20985928       2.37851755
H       -3.82623913       1.56021083       2.22055958
O       -5.02624111       0.96866621       3.74593734
H       -5.94937527       0.64533797       3.91932682
9
Properties=species:S:1:pos:R:3 energy=-724.934736678742 pbc="F F F"
C       -7.06078748       0.65957278       1.06445308
C       -5.71720718       1.05175719       1.40749237
H       -7.63664940       0.35356953       1.96383919
H       -7.08799300      -0.19853375       0.37256809
H       -7.63307095       1.47580513       0.59323018
C       -4.83854656       1.20989347       2.37840045
H       -3.82613661       1.56022740       2.22069215
O       -5.02636826       0.96871015       3.74528562
H       -5.94929458       0.64536110       3.91934187
9
Properties=species:S:1:pos:R:3 energy=-724.9368540944339 pbc="F F F"
C       -7.06037866       0.65970600       1.06445295
C       -5.71782423       1.05146976       1.40815225
H       -7.63657999       0.35359797       1.96380485
H       -7.08796319      -0.19853922       0.37253788
H       -7.63305166       1.47583321       0.59320248
C       -4.83850831       1.20992213       2.37827896
H       -3.82604441       1.56024254       2.22081006
O       -5.02648122       0.96874877       3.74470937
H       -5.94922231       0.64538184       3.91935420
9
Properties=species:S:1:pos:R:3 energy=-724.9387449631466 pbc="F F F"
C       -7.06001322       0.65982530       1.06445135
C       -5.71837560       1.05120946       1.40876847
H       -7.63651591       0.35362445       1.96377233
H       -7.08793543      -0.19854368       0.37251047
H       -7.63303322       1.47585865       0.59317709
C       -4.83848088       1.20994733       2.37815701
H       -3.82595930       1.56025667       2.22091812
O       -5.02658469       0.96878387       3.74418331
H       -5.94915575       0.64540095       3.91936485
9
Properties=species:S:1:pos:R:3 energy=-724.9404882134156 pbc="F F F"
C       -7.05967140       0.65993696       1.06444936
C       -5.71889127       1.05096488       1.40935364
H       -7.63645529       0.35364961       1.96374131
H       -7.08790908      -0.19854771       0.37248472
H       -7.63301557       1.47588255       0.59315310
C       -4.83845748       1.20997076       2.37803852
H       -3.82587880       1.56027010       2.22102007
O       -5.02668228       0.96881688       3.74368759
H       -5.94909284       0.64541897       3.91937469
9
Properties=species:S:1:pos:R:3 energy=-724.942054620036 pbc="F F F"
C       -7.05935981       0.66003881       1.06444715
C       -5.71936128       1.05074107       1.40989389
H       -7.63639953       0.35367288       1.96371257
H       -7.08788477      -0.19855131       0.37246120
H       -7.63299915       1.47590440       0.59313100
C       -4.83843789       1.20999202       2.37792705
H       -3.82580473       1.56028254       2.22111371
O       -5.02677188       0.96884710       3.74323287
H       -5.94903496       0.64543549       3.91938356
9
Properties=species:S:1:pos:R:3 energy=-724.9433832108925 pbc="F F F"
C       -7.05909422       0.66012573       1.06444461
C       -5.71976183       1.05054882       1.41036618
H       -7.63635113       0.35369330       1.96368727
H       -7.08786355      -0.19855424       0.37244105
H       -7.63298459       1.47592316       0.59311179
C       -4.83842423       1.21000998       2.37782608
H       -3.82574041       1.56029346       2.22119472
O       -5.02684934       0.96887308       3.74284037
H       -5.94898472       0.64544972       3.91939094
9
Properties=species:S:1:pos:R:3 energy=-724.944416788582 pbc="F F F"
C       -7.05889041       0.66019260       1.06444159
C       -5.72006908       1.05039894       1.41074744
H       -7.63631259       0.35370990       1.96366656
H       -7.08784646      -0.19855627       0.37242543
H       -7.63297251       1.47593775       0.59309643
C       -4.83841858       1.21002348       2.37773908
H       -3.82568915       1.56030236       2.22125880
O       -5.02691052       0.96889335       3.74253134
H       -5.94894471       0.64546088       3.91939634
9
Properties=species:S:1:pos:R:3 energy=-724.9450992591733 pbc="F F F"
C       -7.05876416       0.66023429       1.06443797
C       -5.72025919       1.05030221       1.41101461
H       -7.63628642       0.35372172       1.96365162
H       -7.08783455      -0.19855715       0.37241549
H       -7.63296355       1.47594712       0.59308592
C       -4.83842304       1.21003140       2.37766951
H       -3.82565428       1.56030873       2.22130163
O       -5.02695129       0.96890649       3.74232701
H       -5.94891753       0.64546819       3.91939923
9
Properties=species:S:1:pos:R:3 energy=-724.9453721260352 pbc="F F F"
C       -7.05873125       0.66024570       1.06443362
C       -5.72030832       1.05026944       1.41114463
H       -7.63627512       0.35372779       1.96364361
H       -7.08782888      -0.19855666       0.37241240
H       -7.63295833       1.47595021       0.59308123
C       -4.83843971       1.21003258       2.37762086
H       -3.82563911       1.56031204       2.22131893
O       -5.02696750       0.96891102       3.74224863
H       -5.94890579       0.64547087       3.91939910
9
Properties=species:S:1:pos:R:3 energy=-724.9451713830379 pbc="F F F"
C       -7.05880717       0.66022179       1.06442841
C       -5.72019308       1.05031123       1.41111483
H       -7.63628115       0.35372715       1.96364366
H       -7.08783046      -0.19855457       0.37241727
H       -7.63295747       1.47594597       0.59308333
C       -4.83847064       1.21002592       2.37759653
H       -3.82564690       1.56031181       2.22130644
O       -5.02695509       0.96890553       3.74231707
H       -5.94891205       0.64546816       3.91939546
9
Properties=species:S:1:pos:R:3 energy=-724.9444943568451 pbc="F F F"
C       -7.05899063       0.66016298       1.06442238
C       -5.71991543       1.05042677       1.41092648
H       -7.63630435       0.35371986       1.96365173
H       -7.08783924      -0.19855090       0.37243003
H       -7.63296094       1.47593449       0.59309216
C       -4.83851550       1.21001152       2.37759657
H       -3.82567745       1.56030805       2.22126447
O       -5.02691433       0.96889013       3.74253083
H       -5.94893613       0.64546011       3.91938834
9
Properties=species:S:1:pos:R:3 energy=-724.9434430004809 pbc="F F F"
C       -7.05925427       0.66007814       1.06441587
C       -5.71951671       1.05059755       1.41061791
H       -7.63634053       0.35370755       1.96366591
H       -7.08785347      -0.19854610       0.37244871
H       -7.63296772       1.47591757       0.59310603
C       -4.83857022       1.20999137       2.37761579
H       -3.82572518       1.56030162       2.22120032
O       -5.02685225       0.96886728       3.74285379
H       -5.94897364       0.64544802       3.91937867
9
Properties=species:S:1:pos:R:3 energy=-724.9421306901679 pbc="F F F"
C       -7.05956851       0.65997684       1.06440920
C       -5.71904163       1.05080356       1.41023064
H       -7.63638510       0.35369196       1.96368415
H       -7.08787126      -0.19854064       0.37247118
H       -7.63297673       1.47589718       0.59312315
C       -4.83863044       1.20996766       2.37764857
H       -3.82578403       1.56029345       2.22112188
O       -5.02677646       0.96883967       3.74324682
H       -5.94901984       0.64543331       3.91936743
9
Properties=species:S:1:pos:R:3 energy=-724.9406789153514 pbc="F F F"
C       -7.05990375       0.65986868       1.06440272
C       -5.71853491       1.05102476       1.40980619
H       -7.63643353       0.35367487       1.96370439
H       -7.08789073      -0.19853499       0.37249531
H       -7.63298686       1.47587530       0.59314170
C       -4.83869177       1.20994254       2.37768926
H       -3.82584797       1.56028447       2.22103705
O       -5.02669453       0.96880998       3.74367079
H       -5.94906996       0.64541740       3.91935559
9
Properties=species:S:1:pos:R:3 energy=-724.9392203427168 pbc="F F F"
C       -7.06023040       0.65976324       1.06439678
C       -5.71804126       1.05124114       1.40938609
H       -7.63648124       0.35365801       1.96372456
H       -7.08790996      -0.19852963       0.37251897
H       -7.63299701       1.47585387       0.59315988
C       -4.83874983       1.20991817       2.37773225
H       -3.82591094       1.56027560       2.22095376
O       -5.02661409       0.96878088       3.74408659
H       -5.94911927       0.64540171       3.91934414
9
Properties=species:S:1:pos:R:3 energy=-724.9378996036904 pbc="F F F"
C       -7.06051887       0.65967012       1.06439171
C       -5.71760541       1.05143266       1.40901186
H       -7.63652368       0.35364314       1.96374261
H       -7.08792709      -0.19852503       0.37254002
H       -7.63300608       1.47583488       0.59317588
C       -4.83880025       1.20989674       2.37777189
H       -3.82596690       1.56026777       2.22087988
O       -5.02654272       0.96875506       3.74445509
H       -5.94916299       0.64538765       3.91933406
9
Properties=species:S:1:pos:R:3 energy=-724.9368596638752 pbc="F F F"
C       -7.06074190       0.65959815       1.06438784
C       -5.71726856       1.05158087       1.40872177
H       -7.63655664       0.35363190       1.96375664
H       -7.08794036      -0.19852162       0.37255651
H       -7.63301305       1.47582012       0.59318803
C       -4.83883900       1.20988023       2.37780299
H       -3.82601029       1.56026184       2.22082271
O       -5.02648744       0.96873498       3.74474025
H       -5.94919677       0.64537653       3.91932626
9
Properties=species:S:1:pos:R:3 energy=-724.9361576219761 pbc="F F F"
C       -7.06089064       0.65955019       1.06438526
C       -5.71704405       1.05167979       1.40852826
H       -7.63657876       0.35362479       1.96376603
H       -7.08794920      -0.19851954       0.37256779
H       -7.63301761       1.47581018       0.59319579
C       -4.83886479       1.20986930       2.37782385
H       -3.82603928       1.56025807       2.22078461
O       -5.02645051       0.96872145       3.74493038
H       -5.94921917       0.64536878       3.91932103
9
Properties=species:S:1:pos:R:3 energy=-724.9358040215702 pbc="F F F"
C       -7.06096503       0.65952626       1.06438397
C       -5.71693195       1.05172938       1.40843142
H       -7.63659004       0.35362182       1.96377078
H       -7.08795361      -0.19851880       0.37257387
H       -7.63301974       1.47580508       0.59319916
C       -4.83887762       1.20986393       2.37783443
H       -3.82605388       1.56025648       2.22076560
O       -5.02643194       0.96871446       3.74502540
H       -5.94923018       0.64536439       3.91931838
9
Properties=species:S:1:pos:R:3 energy=-724.935804009663 pbc="F F F"
C       -7.06096508       0.65952637       1.06438398
C       -5.71693223       1.05172965       1.40843128
H       -7.63659048       0.35362300       1.96377089
H       -7.08795360      -0.19851940       0.37257474
H       -7.63301945       1.47580480       0.59319813
C       -4.83887753       1.20986413       2.37783468
H       -3.82605409       1.56025707       2.22076566
O       -5.02643175       0.96871402       3.74502533
H       -5.94922981       0.64536337       3.91931830
9
Properties=species:S:1:pos:R:3 energy=-724.9361575853172 pbc="F F F"
C       -7.06089078       0.65955050       1.06438528
C       -5.71704486       1.05168061       1.40852788
H       -7.63658006       0.35362831       1.96376637
H       -7.08794916      -0.19852134       0.37257040
H       -7.63301674       1.47580936       0.59319272
C       -4.83886453       1.20986989       2.37782459
H       -3.82603989       1.56025982       2.22078481
O       -5.02644993       0.96872013       3.74493016
H       -5.94921805       0.64536571       3.91932079
9
Properties=species:S:1:pos:R:3 energy=-724.9368596026021 pbc="F F F"
C       -7.06074214       0.65959867       1.06438788
C       -5.71726982       1.05158225       1.40872124
H       -7.63655880       0.35363777       1.96375720
H       -7.08794029      -0.19852462       0.37256085
H       -7.63301161       1.47581874       0.59318291
C       -4.83883865       1.20988122       2.37780411
H       -3.82601130       1.56026475       2.22082304
O       -5.02648648       0.96873278       3.74473991
H       -5.94919491       0.64537142       3.91932586
9
Properties=species:S:1:pos:R:3 energy=-724.9378995271078 pbc="F F F"
C       -7.06051920       0.65967086       1.06439176
C       -5.71760702       1.05143462       1.40901131
H       -7.63652671       0.35365137       1.96374340
H       -7.08792700      -0.19852923       0.37254611
H       -7.63300406       1.47583295       0.59316871
C       -4.83879993       1.20989810       2.37777322
H       -3.82596831       1.56027185       2.22088035
O       -5.02654139       0.96875197       3.74445464
H       -5.94916038       0.64538050       3.91933351
9
Properties=species:S:1:pos:R:3 energy=-724.9392202772897 pbc="F F F"
C       -7.06023082       0.65976419       1.06439683
C       -5.71804307       1.05124370       1.40938570
H       -7.63648513       0.35366858       1.96372558
H       -7.08790985      -0.19853503       0.37252680
H       -7.63299442       1.47585140       0.59315066
C       -4.83874967       1.20991989       2.37773359
H       -3.82591275       1.56028085       2.22095436
O       -5.02661239       0.96877690       3.74408605
H       -5.94911590       0.64539252       3.91934343
9
Properties=species:S:1:pos:R:3 energy=-724.9406788995935 pbc="F F F"
C       -7.05990425       0.65986984       1.06440278
C       -5.71853680       1.05102793       1.40980610
H       -7.63643829       0.35368779       1.96370564
H       -7.08789059      -0.19854160       0.37250488
H       -7.63298370       1.47587228       0.59313043
C       -4.83869188       1.20994459       2.37769047
H       -3.82585017       1.56029088       2.22103779
O       -5.02669248       0.96880510       3.74367019
H       -5.94906584       0.64540618       3.91935472
9
Properties=species:S:1:pos:R:3 energy=-724.942130770821 pbc="F F F"
C       -7.05956910       0.65997822       1.06440926
C       -5.71904353       1.05080736       1.41023094
H       -7.63639073       0.35370724       1.96368564
H       -7.08787110      -0.19854845       0.37248249
H       -7.63297300       1.47589362       0.59310982
C       -4.83863089       1.20997004       2.37764953
H       -3.82578663       1.56030103       2.22112275
O       -5.02677405       0.96883390       3.74324617
H       -5.94901496       0.64542005       3.91936641
9
Properties=species:S:1:pos:R:3 energy=-724.9434432223848 pbc="F F F"
C       -7.05925495       0.66007973       1.06441592
C       -5.71951859       1.05060198       1.41061866
H       -7.63634701       0.35372517       1.96366763
H       -7.08785329      -0.19855511       0.37246176
H       -7.63296342       1.47591346       0.59309065
C       -4.83857106       1.20999407       2.37761645
H       -3.82572818       1.56031037       2.22120132
O       -5.02684950       0.96886060       3.74285310
H       -5.94896801       0.64543272       3.91937750
9
Properties=species:S:1:pos:R:3 energy=-724.9444947519105 pbc="F F F"
C       -7.05899139       0.66016480       1.06442244
C       -5.71991728       1.05043184       1.41092768
H       -7.63631170       0.35373984       1.96365368
H       -7.08783903      -0.19856111       0.37244482
H       -7.63295606       1.47592982       0.59307473
C       -4.83851673       1.21001454       2.37759692
H       -3.82568085       1.56031796       2.22126562
O       -5.02691122       0.96888255       3.74253010
H       -5.94892973       0.64544277       3.91938702
9
Properties=species:S:1:pos:R:3 energy=-724.9451719580823 pbc="F F F"
C       -7.05880802       0.66022382       1.06442846
C       -5.72019493       1.05031693       1.41111644
H       -7.63628936       0.35374947       1.96364584
H       -7.08783023      -0.19856598       0.37243380
H       -7.63295202       1.47594076       0.59306385
C       -4.83847223       1.21002927       2.37759661
H       -3.82565069       1.56032289       2.22130772
O       -5.02695162       0.96889705       3.74231628
H       -5.94890490       0.64544878       3.91939397
9
Properties=species:S:1:pos:R:3 energy=-724.9453728548971 pbc="F F F"
C       -7.05873218       0.66024794       1.06443368
C       -5.72031023       1.05027578       1.41114657
H       -7.63628420       0.35375246       1.96364602
H       -7.08782863      -0.19856928       0.37243067
H       -7.63295231       1.47594445       0.59305970
C       -4.83844159       1.21003627       2.37762076
H       -3.82564330       1.56032429       2.22132034
O       -5.02696367       0.96890164       3.74224779
H       -5.94889789       0.64544945       3.91939747
9
Properties=species:S:1:pos:R:3 energy=-724.9451000983879 pbc="F F F"
C       -7.05876519       0.66023675       1.06443803
C       -5.72026123       1.05030917       1.41101680
H       -7.63629636       0.35374875       1.96365427
H       -7.08783429      -0.19857097       0.37243550
H       -7.63295695       1.47594081       0.59306235
C       -4.83842515       1.21003542       2.37766934
H       -3.82565887       1.56032214       2.22130319
O       -5.02694709       0.96889621       3.74232609
H       -5.94890887       0.64544473       3.91939744
9
Properties=species:S:1:pos:R:3 energy=-724.944417694229 pbc="F F F"
C       -7.05889153       0.66019526       1.06444165
C       -5.72007133       1.05040652       1.41074980
H       -7.63632340       0.35373928       1.96366944
H       -7.08784618      -0.19857129       0.37244717
H       -7.63296533       1.47593088       0.59307081
C       -4.83842085       1.21002786       2.37773891
H       -3.82569414       1.56031694       2.22126049
O       -5.02690596       0.96888218       3.74253034
H       -5.94893530       0.64543537       3.91939439
9
Properties=species:S:1:pos:R:3 energy=-724.9433841438387 pbc="F F F"
C       -7.05909543       0.66012860       1.06444467
C       -5.71976433       1.05055701       1.41036865
H       -7.63636280       0.35372502       1.96369037
H       -7.08786325      -0.19857047       0.37246453
H       -7.63297682       1.47591573       0.59308413
C       -4.83842661       1.21001472       2.37782599
H       -3.82574580       1.56030920       2.22119655
O       -5.02684440       0.96886101       3.74283928
H       -5.94897456       0.64542217       3.91938884
9
Properties=species:S:1:pos:R:3 energy=-724.9420555492502 pbc="F F F"
C       -7.05936111       0.66004189       1.06444722
C       -5.71936408       1.05074987       1.40989641
H       -7.63641207       0.35370695       1.96371590
H       -7.08788445      -0.19856874       0.37248641
H       -7.63299079       1.47589642       0.59310130
C       -4.83844035       1.20999713       2.37792710
H       -3.82581053       1.56029944       2.22111567
O       -5.02676656       0.96883414       3.74323167
H       -5.94902405       0.64540590       3.91938130
9
Properties=species:S:1:pos:R:3 energy=-724.9404891172647 pbc="F F F"
C       -7.05967280       0.65994026       1.06444944
C       -5.71889440       1.05097429       1.40935618
H       -7.63646870       0.35368603       1.96374486
H       -7.08790874      -0.19856635       0.37251167
H       -7.63300662       1.47587400       0.59312136
C       -4.83845997       1.20997623       2.37803876
H       -3.82588500       1.56028817       2.22102217
O       -5.02667659       0.96880303       3.74368629
H       -5.94908119       0.64538733       3.91937228
9
Properties=species:S:1:pos:R:3 energy=-724.9387458292963 pbc="F F F"
C       -7.06001471       0.65982880       1.06445144
C       -5.71837909       1.05121948       1.40877100
H       -7.63653018       0.35366323       1.96377611
H       -7.08793507      -0.19856352       0.37253916
H       -7.63302369       1.47584954       0.59314330
C       -4.83848339       1.20995317       2.37815747
H       -3.82596591       1.56027591       2.22092035
O       -5.02657861       0.96876912       3.74418189
H       -5.94914336       0.64536726       3.91936229
9
Properties=species:S:1:pos:R:3 energy=-724.9368549182088 pbc="F F F"
C       -7.06038026       0.65970971       1.06445304
C       -5.71782809       1.05148038       1.40815475
H       -7.63659513       0.35363911       1.96380885
H       -7.08796282      -0.19856027       0.37256830
H       -7.63304153       1.47582354       0.59316666
C       -4.83851081       1.20992835       2.37827965
H       -3.82605143       1.56026294       2.22081243
O       -5.02647476       0.96873313       3.74470784
H       -5.94920916       0.64534611       3.91935148
9
Properties=species:S:1:pos:R:3 energy=-724.9347374597772 pbc="F F F"
C       -7.06078917       0.65957670       1.06445317
C       -5.71721141       1.05176842       1.40749482
H       -7.63666540       0.35361301       1.96384341
H       -7.08799261      -0.19855599       0.37260024
H       -7.63306023       1.47579491       0.59319232
C       -4.83854905       1.20990007       2.37840140
H       -3.82614403       1.56024897       2.22069466
O       -5.02636141       0.96869362       3.74528397
H       -5.94928069       0.64532331       3.91933900
9
Properties=species:S:1:pos:R:3 energy=-724.9322833726364 pbc="F F F"
C       -7.06126591       0.65942196       1.06445058
C       -5.71649194       1.05209796       1.40677390
H       -7.63674340       0.35358409       1.96388031
H       -7.08802529      -0.19854998       0.37263641
H       -7.63307993       1.47576224       0.59322146
C       -4.83860607       1.20986624       2.37851876
H       -3.82624696       1.56023357       2.22056222
O       -5.02623387       0.96864878       3.74593557
H       -5.94936063       0.64529814       3.91932380
9
Properties=species:S:1:pos:R:3 energy=-724.9293652865342 pbc="F F F"
C       -7.06183494       0.65923770       1.06444402
C       -5.71563254       1.05248336       1.40597466
H       -7.63683155       0.35355149       1.96392006
H       -7.08806169      -0.19854149       0.37267825
H       -7.63310078       1.47572417       0.59325522
C       -4.83868986       1.20982481       2.37862776
H       -3.82636346       1.56021631       2.22041029
O       -5.02608749       0.96859681       3.74668790
H       -5.94945168       0.64526984       3.91930483
9
Properties=species:S:1:pos:R:3 energy=-724.9258322204033 pbc="F F F"
C       -7.06252072       0.65901612       1.06443225
C       -5.71459611       1.05293901       1.40507978
H       -7.63693226       0.35351435       1.96396318
H       -7.08810265      -0.19852983       0.37272720
H       -7.63312296       1.47567930       0.59329478
C       -4.83880840       1.20977368       2.37872446
H       -3.82649678       1.56019679       2.22023404
O       -5.02591758       0.96853590       3.74756626
H       -5.94955654       0.64523768       3.91928106
9
Properties=species:S:1:pos:R:3 energy=-724.921501394469 pbc="F F F"
C       -7.06334770       0.65874942       1.06441402
C       -5.71334551       1.05347925       1.40407192
H       -7.63704797       0.35347183       1.96401019
H       -7.08814902      -0.19851426       0.37278469
H       -7.63314661       1.47562625       0.59334129
C       -4.83896967       1.20971079       2.37880490
H       -3.82665016       1.56017458       2.22002865
O       -5.02571947       0.96846423       3.74859591
H       -5.94967790       0.64520092       3.91925144
9
Properties=species:S:1:pos:R:3 energy=-724.9161483683795 pbc="F F F"
C       -7.06434034       0.65842980       1.06438808
C       -5.71184363       1.05411846       1.40293377
H       -7.63718107       0.35342305       1.96406160
H       -7.08820163      -0.19849407       0.37285216
H       -7.63317188       1.47556363       0.59339591
C       -4.83918165       1.20963405       2.37886511
H       -3.82682685       1.56014925       2.21978931