9
Properties=species:S:1:pos:R:3 energy=-724.8416681181226 pbc="F F F"
C       -7.07514200       0.65495800       1.06400100
C       -5.69546900       1.06081800       1.39239500
H       -7.63845500       0.35288200       1.96448500
H       -7.08869600      -0.19820000       0.37349600
H       -7.63338400       1.47492600       0.59401900
C       -4.84196200       1.20875600       2.37857800
H       -3.82854600       1.55987400       2.21736600
O       -5.02316200       0.96753600       3.76216600
H       -5.95123800       0.64481300       3.91879700
