22
Properties=species:S:1:pos:R:3 energy=-2169.1849259216374 pbc="F F F"
O        0.75324700       1.95506800       2.53504000
C        0.12499500       2.29091000       1.55596600
C        0.59341800       2.05162800       0.13972700
C        1.75302000       1.05636400       0.05192400
C        1.32197100      -0.39054800       0.32580100
C        0.33988800      -0.97983000      -0.66920900
H        0.30454300      -2.08252200      -0.61315400
C        0.48359000      -0.47135900      -2.09176100
O       -0.23214000       0.39878900      -2.53053600
C        1.55670800      -1.13475400      -2.90093600
H       -0.84293200       2.81165300       1.64455400
H       -0.25817500       1.70326300      -0.49131900
H        0.89258600       3.02322500      -0.30698700
H        2.23964100       1.13855200      -0.93823000
H        2.52639900       1.33869800       0.80126700
H        2.22121600      -1.03509300       0.39181800
H        0.84927200      -0.43946900       1.34020000
H        1.26157000      -2.14990200      -3.20277700
H        1.75718000      -0.57584400      -3.82884300
H        2.50445300      -1.22055300      -2.35365600
O       -1.42178600      -0.71953900       0.81850300
O       -1.10604200      -0.53248100      -0.30026400
22
Properties=species:S:1:pos:R:3 energy=-2169.1780189018946 pbc="F F F"
O        0.71215164       1.92238021       2.55215909
C        0.10972341       2.29125699       1.56933185
C        0.59731025       2.06958707       0.16009285
C        1.74619932       1.06152773       0.05512246
C        1.32322092      -0.38866769       0.33582053
C        0.35473204      -0.98532924      -0.66743336
H        0.32683631      -2.08796985      -0.61315722
C        0.50418043      -0.47224307      -2.08910234
O       -0.18154384       0.42476613      -2.52498883
C        1.54444132      -1.16035665      -2.91611454
H       -0.84516743       2.83308857       1.65011571
H       -0.25069070       1.74918008      -0.49044914
H        0.92025891       3.04369972      -0.26687082
H        2.20484909       1.15474843      -0.95233565
H        2.54595174       1.34011733       0.77280971
H        2.22872002      -1.02532874       0.40519326
H        0.84878467      -0.44346569       1.34924712
H        1.20906659      -2.15411909      -3.22694851
H        1.75807647      -0.59231537      -3.83492881
H        2.48961436      -1.28603776      -2.38283553
O       -1.42227389      -0.69935197       0.80763170
O       -1.10181964      -0.55891113      -0.31523155
22
Properties=species:S:1:pos:R:3 energy=-2169.1589178427425 pbc="F F F"
O        0.67048002       1.89044092       2.56764839
C        0.09457474       2.29169748       1.58222648
C        0.60148047       2.08729760       0.18037787
C        1.73851651       1.06651610       0.05817478
C        1.32464023      -0.38667699       0.34575676
C        0.36982818      -0.99086170      -0.66559195
H        0.34942854      -2.09339342      -0.61275843
C        0.52522425      -0.47349403      -2.08628027
O       -0.12934385       0.44922623      -2.51894617
C        1.53171203      -1.18531985      -2.93089484
H       -0.84691989       2.85435331       1.65580890
H       -0.24213827       1.79528281      -0.48897610
H        0.94798017       3.06293810      -0.22631811
H        2.16829516       1.16988702      -0.96485612
H        2.56371060       1.34148108       0.74295841
H        2.23635494      -1.01508041       0.41830255
H        0.84880970      -0.44737580       1.35821231
H        1.15699730      -2.15679377      -3.25023631
H        1.75854924      -0.60892671      -3.84083109
H        2.47321915      -1.35052281      -2.41206592
O       -1.42215144      -0.67918272       0.79496170
O       -1.09662578      -0.58523646      -0.32954484
22
Properties=species:S:1:pos:R:3 energy=-2169.1296726964856 pbc="F F F"
O        0.62828034       1.85926686       2.58151363
C        0.07955752       2.29223341       1.59464395
C        0.60592254       2.10474649       0.20056908
C        1.73001854       1.07133563       0.06107758
C        1.32622956      -0.38457471       0.35559620
C        0.38515951      -0.99642436      -0.66368463
H        0.37229888      -2.09879027      -0.61196045
C        0.54669766      -0.47511250      -2.08330572
O       -0.07562201       0.47215043      -2.51243241
C        1.51854396      -1.20962837      -2.94527429
H       -0.84820036       2.87543348       1.66163137
H       -0.23253476       1.84152264      -0.48690423
H        0.97572228       3.08094000      -0.18536280
H        2.13003235       1.18395972      -0.97582038
H        2.57968388       1.34279460       0.71178170
H        2.24411921      -1.00436305       0.43113439
H        0.84933279      -0.45118893       1.36708493
H        1.10540323      -2.15794001      -3.27263143
H        1.75860469      -0.62565642      -3.84655993
H        2.45530119      -1.41395926      -2.44130296
O       -1.42143488      -0.65905312       0.78054993
O       -1.09049412      -0.61143626      -0.34321554
22
Properties=species:S:1:pos:R:3 energy=-2169.0918809607024 pbc="F F F"
O        0.58560081       1.82887477       2.59376054
C        0.06468027       2.29286675       1.60657836
C        0.61063039       2.12192063       0.22065351
C        1.72075239       1.07599284       0.06382748
C        1.32798953      -0.38235970       0.36532533
C        0.40070910      -1.00201420      -0.66171122
H        0.39542652      -2.10415795      -0.61076610
C        0.56857687      -0.47709910      -2.08018960
O       -0.02046031       0.49351985      -2.50547194
C        1.50496091      -1.23326698      -2.95925026
H       -0.84901981       2.89631535       1.66758094
H       -0.22189717       1.88785099      -0.48423787
H        1.00345778       3.09770526      -0.14403882
H        2.09011383       1.19695850      -0.98525741
H        2.59387986       1.34406324       0.67934816
H        2.25201124      -0.99319171       0.44367731
H        0.85033967      -0.45489472       1.37585436
H        1.05432546      -2.15757176      -3.29412491
H        1.75824916      -0.64248293      -3.85212541
H        2.43589430      -1.47629822      -2.47050248
O       -1.42014041      -0.63898506       0.76445331
O       -1.08345838      -0.63748984      -0.35625530
22
Properties=species:S:1:pos:R:3 energy=-2169.0467451377403 pbc="F F F"
O        0.54248963       1.79928136       2.60439485
C        0.04995151       2.29359946       1.61802376
C        0.61559791       2.13880691       0.24061821
C        1.71076502       1.08049424       0.06642109
C        1.32992077      -0.38003076       0.37493065
C        0.41646002      -1.00762822      -0.65967157
H        0.41879067      -2.10949404      -0.60917820
C        0.59083806      -0.47945445      -2.07694281
O        0.03605927       0.51331561      -2.49808914
C        1.49098672      -1.25622045      -2.97282012
H       -0.84938923       2.91698519       1.67365539
H       -0.21024254       1.93421932      -0.48098136
H        1.03115919       3.11323372      -0.10238011
H        2.04859274       1.20887531      -0.99319618
H        2.60630684       1.34529234       0.64572640
H        2.26002947      -0.98158142       0.45591983
H        0.85181606      -0.45848278       1.38450995
H        1.00380509      -2.15570301      -3.31470778
H        1.75748902      -0.65938466      -3.85753761
H        2.41503231      -1.53749080      -2.49962026
O       -1.41828426      -0.61900040       0.74672879
O       -1.07555226      -0.66337647      -0.36867578
22
Properties=species:S:1:pos:R:3 energy=-2168.995122308695 pbc="F F F"
O        0.49899500       1.77050339       2.61342229
C        0.03537976       2.29443349       1.62897425
C        0.62081903       2.15539222       0.26045021
C        1.70010339       1.08484634       0.06885503
C        1.33202391      -0.37758674       0.38439864
C        0.43239536      -1.01326339      -0.65756552
H        0.44237052      -2.11479608      -0.60719958
C        0.61345744      -0.48217919      -2.07357626
O        0.09385475       0.53151883      -2.49030840
C        1.47664519      -1.27847354      -2.98598126
H       -0.84931960       2.93742928       1.67985253
H       -0.19758788       1.98057906      -0.47713904
H        1.05879903       3.12752523      -0.06042060
H        2.00552224       1.21970211      -0.99966566
H        2.61697312       1.34648727       0.61098501
H        2.26817233      -0.96954722       0.46785046
H        0.85374768      -0.46194274       1.39304109
H        0.95388319      -2.15234771      -3.33437109
H        1.75633064      -0.67634002      -3.86280664
H        2.39274904      -1.59748811      -2.52861210
O       -1.41588265      -0.59912103       0.72743330
O       -1.06680946      -0.68907547      -0.38048864
22
Properties=species:S:1:pos:R:3 energy=-2168.937570322787 pbc="F F F"
O        0.45516514       1.74255758       2.62084860
C        0.02097355       2.29537082       1.63942388
C        0.62628763       2.17166346       0.28013653
C        1.68881449       1.08905567       0.07112593
C        1.33429957      -0.37502646       0.39371579
C        0.44849818      -1.01891670      -0.65539291
H        0.46614526      -2.12006163      -0.60483306
C        0.63641121      -0.48527393      -2.07010088
O        0.15284413       0.54811063      -2.48215410
C        1.46196014      -1.30001102      -2.99873106
H       -0.84882190       2.95763387       1.68617017
H       -0.18395022       2.02688164      -0.47271526
H        1.08634982       3.14057964      -0.01819422
H        1.96095546       1.22943086      -1.00469483
H        2.62588699       1.34765337       0.57519258
H        2.27643825      -0.95710415       0.47945774
H        0.85612024      -0.46526421       1.40143715
H        0.90460087      -2.14751982      -3.35310586
H        1.75478037      -0.69332742      -3.86794258
H        2.36907830      -1.65624126      -2.55743382
O       -1.41295180      -0.57936882       0.70662376
O       -1.05726369      -0.71456611      -0.39170555
22
Properties=species:S:1:pos:R:3 energy=-2168.874395893399 pbc="F F F"
O        0.41104824       1.71546066       2.62667950
C        0.00674139       2.29641339       1.64936674
C        0.63199764       2.18760753       0.29966422
C        1.67694527       1.09312874       0.07323040
C        1.33674839      -0.37234875       0.40286860
C        0.46475156      -1.02458514      -0.65315356
H        0.49009410      -2.12528826      -0.60208146
C        0.65967557      -0.48873931      -2.06652757
O        0.21294544       0.56307214      -2.47365062
C        1.44695539      -1.32081765      -3.01106689
H       -0.84790710       2.97758523       1.69260610
H       -0.16934658       2.07307851      -0.46771437
H        1.11378409       3.15239680       0.02426511
H        1.91494558       1.23805351      -1.00831265
H        2.63305675       1.34879600       0.53841770
H        2.28482566      -0.94426725       0.49073018
H        0.85891948      -0.46843682       1.40968748
H        0.85599920      -2.14123333      -3.37090314
H        1.75284459      -0.71032530      -3.87295552
H        2.34405392      -1.71370136      -2.58604122
O       -1.40950792      -0.55976565       0.68435713
O       -1.04694866      -0.73982768      -0.40233816
22
Properties=species:S:1:pos:R:3 energy=-2168.805706470846 pbc="F F F"
O        0.36669252       1.68922936       2.63092073
C       -0.00730818       2.29756317       1.65879690
C        0.63794295       2.20321132       0.31902030
C        1.66454271       1.09707206       0.07516506
C        1.33937100      -0.36955243       0.41184356
C        0.48113858      -1.03026569      -0.65084734
H        0.51419622      -2.13047352      -0.59894759
C        0.68322671      -0.49257593      -2.06286724
O        0.27407668       0.57638447      -2.46482235
C        1.43165477      -1.34087821      -3.02298613
H       -0.84658619       2.99726965       1.69915814
H       -0.15379398       2.11912109      -0.46214070
H        1.14107435       3.16297654       0.06692344
H        1.86754573       1.24556202      -1.01054812
H        2.63849069       1.34992049       0.50072897
H        2.29333299      -0.93105155       0.50165631
H        0.86213110      -0.47145019       1.41778146
H        0.80811927      -2.13350219      -3.38775395
H        1.75052964      -0.72731206      -3.87785555
H        2.31770973      -1.76981950      -2.61439009
O       -1.40556723      -0.54033339       0.66069032
O       -1.03589806      -0.76483949      -0.41239814
22
Properties=species:S:1:pos:R:3 energy=-2168.731461620678 pbc="F F F"
O        0.32214617       1.66388042       2.63357802
C       -0.02116665       2.29882212       1.66770844
C        0.64411748       2.21846171       0.33819182
C        1.65165376       1.10089216       0.07692653
C        1.34216801      -0.36663634       0.42062716
C        0.49764231      -1.03595534      -0.64847407
H        0.53843083      -2.13561498      -0.59543429
C        0.70704083      -0.49678444      -2.05913080
O        0.33615588       0.58802875      -2.45569367
C        1.41608208      -1.36017746      -3.03448616
H       -0.84487014       3.01667338       1.70582407
H       -0.13730945       2.16496084      -0.45599860
H        1.16819313       3.17231872       0.10974685
H        1.81880906       1.25194835      -1.01143018
H        2.64219711       1.35103222       0.46219499
H        2.30195868      -0.91747211       0.51222464
H        0.86574084      -0.47429393       1.42570845
H        0.76100218      -2.12434038      -3.40364934
H        1.74784190      -0.74426613      -3.88265274
H        2.29007953      -1.82454682      -2.64243624
O       -1.40114595      -0.52109393       0.63568027
O       -1.02414560      -0.78958081      -0.42189714
22
Properties=species:S:1:pos:R:3 energy=-2168.6515177958395 pbc="F F F"
O        0.27745741       1.63943057       2.63465710
C       -0.03482550       2.30019219       1.67609543
C        0.65051514       2.23334561       0.35716579
C        1.63832542       1.10459554       0.07851142
C        1.34514007      -0.36359930       0.42920588
C        0.51424584      -1.04165107      -0.64603359
H        0.56277712      -2.14071019      -0.59154437
C        0.73109414      -0.50136544      -2.05532918
O        0.39910104       0.59798609      -2.44628897
C        1.40026115      -1.37870016      -3.04556436
H       -0.84276994       3.03578269       1.71260170
H       -0.11991000       2.21054918      -0.44929241
H        1.19511294       3.18042318       0.15270141
H        1.76878874       1.25720446      -1.01098783
H        2.64418430       1.35213652       0.42288435
H        2.31070115      -0.90354395       0.52242371
H        0.86973440      -0.47695768       1.43345784
H        0.71468901      -2.11376185      -3.41858034
H        1.74478773      -0.76116591      -3.88735721
H        2.26119716      -1.87783440      -2.67013547
O       -1.39626031      -0.50206914       0.60938393
O       -1.01172500      -0.81403095      -0.43084682
22
Properties=species:S:1:pos:R:3 energy=-2168.5656705897572 pbc="F F F"
O        0.23267444       1.61589654       2.63416370
C       -0.04827621       2.30167536       1.68395194
C        0.65712982       2.24784991       0.37592927
C        1.62460463       1.10818872       0.07991637
C        1.34828779      -0.36044014       0.43756622
C        0.53093223      -1.04734987      -0.64352574
H        0.58721429      -2.14575670      -0.58728066
C        0.75536283      -0.50631957      -2.05147327
O        0.46283019       0.60623762      -2.43663264
C        1.38421579      -1.39643109      -3.05621810
H       -0.84029657       3.05458386       1.71948884
H       -0.10161267       2.25583756      -0.44202647
H        1.22180632       3.18728978       0.19575318
H        1.71753790       1.26132230      -1.00925003
H        2.64446056       1.35323875       0.38286564
H        2.31955883      -0.88928212       0.53224202
H        0.87409751      -0.47943104       1.44101898
H        0.66922086      -2.10178058      -3.43253799
H        1.74137348      -0.77798984      -3.89197902
H        2.23109643      -1.92963337      -2.69744360
O       -1.39092651      -0.48328089       0.58185821
O       -0.99866994      -0.83816919      -0.43925886
22
Properties=species:S:1:pos:R:3 energy=-2168.4737207171456 pbc="F F F"
O        0.18784546       1.59329507       2.63210356
C       -0.06151024       2.30327357       1.69127206
C        0.66395545       2.26196150       0.39446927
C        1.61053836       1.11167823       0.08113797
C        1.35161180      -0.35715769       0.44569467
C        0.54768456      -1.05304872      -0.64095036
H        0.61172153      -2.15075209      -0.58264597
C        0.77982310      -0.51164745      -2.04757399
O        0.52726133       0.61276446      -2.42674905
C        1.36796983      -1.41335501      -3.06644477
H       -0.83746100       3.07306315       1.72648329
H       -0.08243447       2.30077741      -0.43420514
H        1.24824578       3.19291834       0.23886824
H        1.66510970       1.26429384      -1.00624576
H        2.64303419       1.35434426       0.34220746
H        2.32853015      -0.87470166       0.54166811
H        0.87881589      -0.48170365       1.44838124
H        0.62463880      -2.08841052      -3.44551332
H        1.73760552      -0.79471632      -3.89652828
H        2.19981117      -1.97989483      -2.72431640
O       -1.38516077      -0.46475106       0.55316005
O       -0.98501415      -0.86197482      -0.44714490
22
Properties=species:S:1:pos:R:3 energy=-2168.3756099344782 pbc="F F F"
O        0.14301868       1.57164289       2.62848241
C       -0.07451909       2.30498879       1.69804986
C        0.67098591       2.27566727       0.41277284
C        1.59617360       1.11507056       0.08217286
C        1.35511275      -0.35375077       0.45357772
C        0.56448591      -1.05874461      -0.63830730
H        0.63627805      -2.15569390      -0.57764313
C        0.80445115      -0.51734971      -2.04364226
O        0.59231248       0.61754773      -2.41666260
C        1.35154707      -1.42945669      -3.07624173
H       -0.83427422       3.09120684       1.73358284
H       -0.06239243       2.34532017      -0.42583274
H        1.27440385       3.19730873       0.28201265
H        1.61155730       1.26611102      -1.00200398
H        2.63991347       1.35545840       0.30097840
H        2.33761355      -0.85981760       0.55069049
H        0.88387526      -0.48376512       1.45553401
H        0.58098393      -2.07366566      -3.45749737
H        1.73349022      -0.81132378      -3.90101507
H        2.16737520      -2.02856989      -2.75070970
O       -1.37897933      -0.44650153       0.52334640
O       -0.97079132      -0.88542714      -0.45451660
22
Properties=species:S:1:pos:R:3 energy=-2168.27166639171 pbc="F F F"
O        0.09824231       1.55095672       2.62330597
C       -0.08729423       2.30682297       1.70427940
C        0.67821513       2.28895412       0.43082701
C        1.58155730       1.11837225       0.08301766
C        1.35879124      -0.35021822       0.46120187
C        0.58131935      -1.06443452      -0.63559638
H        0.66086303      -2.16057971      -0.57227496
C        0.82922318      -0.52342696      -2.03968898
O        0.65790166       0.62056855      -2.40639766
C        1.33497134      -1.44472089      -3.08560638
H       -0.83074720       3.10900118       1.74078531
H       -0.04150357       2.38941727      -0.41691363
H        1.30025304       3.20046079       0.32515249
H        1.55693384       1.26676581      -0.99655368
H        2.63510671       1.35658653       0.25924706
H        2.34680746      -0.84464498       0.55929768
H        0.88926133      -0.48560507       1.46246663
H        0.53829734      -2.05755996      -3.46848117
H        1.72903394      -0.82779063      -3.90544948
H        2.13382234      -2.07560966      -2.77657930
O       -1.37239838      -0.42855418       0.49247418
O       -0.95603516      -0.90850543      -0.46138563
22
Properties=species:S:1:pos:R:3 energy=-2168.162949934239 pbc="F F F"
O        0.05356454       1.53125331       2.61657998
C       -0.09982713       2.30877809       1.70995478
C        0.68563701       2.30180894       0.44861881
C        1.56673644       1.12158981       0.08366897
C        1.36264791      -0.34655885       0.46855359
C        0.59816796      -1.07011544      -0.63281746
H        0.68545568      -2.16540706      -0.56654427
C        0.85411538      -0.52987984      -2.03572507
O        0.72394688       0.62180805      -2.39597862
C        1.31826646      -1.45913238      -3.09453608
H       -0.82689093       3.12643246       1.74808848
H       -0.01978491       2.43302017      -0.40745215
H        1.32576589       3.20237436       0.36825381
H        1.50129247       1.26625016      -0.98992382
H        2.62862219       1.35773398       0.21708202
H        2.35611030      -0.82919885       0.56747822
H        0.89495984      -0.48721312       1.46916848
H        0.49662011      -2.04010737      -3.47845576
H        1.72424303      -0.84409529      -3.90984159
H        2.09918641      -2.12096525      -2.80188099
O       -1.36543416      -0.41093088       0.46060032
O       -0.94077937      -0.93118900      -0.46776365
22
Properties=species:S:1:pos:R:3 energy=-2168.0516094053396 pbc="F F F"
O        0.00903359       1.51254938       2.60831017
C       -0.11210928       2.31085609       1.71507005
C        0.69324546       2.31421863       0.46613527
C        1.55175798       1.12472975       0.08412343
C        1.36668339      -0.34277151       0.47561939
C        0.61501481      -1.07578435      -0.62997036
H        0.71003518      -2.17017351      -0.56045391
C        0.87910396      -0.53670896      -2.03176143
O        0.79036616       0.62124733      -2.38542987
C        1.30145624      -1.47267593      -3.10302821
H       -0.82271638       3.14348693       1.75549018
H        0.00274653       2.47608029      -0.39745264
H        1.35091490       3.20304930       0.41128269
H        1.44468634       1.26455603      -0.98214338
H        2.62046822       1.35890612       0.17455189
H        2.36552051      -0.81349424       0.57522062
H        0.90095649      -0.48857890       1.47562894
H        0.45599334      -2.02132188      -3.48741217
H        1.71912386      -0.86021618      -3.91420150
H        2.06350123      -2.16458776      -2.82657058
O       -1.35810288      -0.39365351       0.42778176
O       -0.92505766      -0.95345712      -0.47366232
22
Properties=species:S:1:pos:R:3 energy=-2167.9410999800893 pbc="F F F"
O       -0.03530233       1.49486167       2.59850227
C       -0.12413215       2.31305894       1.71961930
C        0.70103438       2.32617008       0.48336344
C        1.53666888       1.12779859       0.08437764
C        1.37089830      -0.33885502       0.48238575
C        0.63184299      -1.08143824      -0.62705493
H        0.73458075      -2.17487663      -0.55400667
C        0.90416512      -0.54391496      -2.02780899
O        0.85707751       0.61886754      -2.37477579
C        1.28456450      -1.48533630      -3.11108016
H       -0.81823453       3.16015088       1.76298819
H        0.02607371       2.51854907      -0.38691945
H        1.37567261       3.20248544       0.45420520
H        1.38716861       1.26167538      -0.97324134
H        2.61065308       1.36010830       0.13172527
H        2.37503652      -0.79754619       0.58251340
H        0.90723701      -0.48969203       1.48183737
H        0.41645811      -2.00121744      -3.49534145
H        1.71368280      -0.87613172      -3.91853929
H        2.02680062      -2.20642831      -2.85060387
O       -1.35042076      -0.37674395       0.39407544
O       -0.90890373      -0.97528909      -0.47909330
22
Properties=species:S:1:pos:R:3 energy=-2167.8361089300524 pbc="F F F"
O       -0.07939504       1.47820691       2.58716202
C       -0.13588723       2.31538860       1.72359661
C        0.70899769       2.33765018       0.50029033
C        1.52151613       1.13080284       0.08442823
C        1.37529328      -0.33480820       0.48883917
C        0.64863556      -1.08707410      -0.62407101
H        0.75907157      -2.17951398      -0.54720539
C        0.92927505      -0.55149845      -2.02387865
O        0.92399894       0.61464977      -2.36404077
C        1.26761506      -1.49709826      -3.11868930
H       -0.81345638       3.17641056       1.77058032
H        0.05017963       2.56037795      -0.37585691
H        1.40001153       3.20068263       0.49698741
H        1.32879243       1.25760017      -0.96324666
H        2.59918508       1.36134586       0.08867073
H        2.38465675      -0.78136975       0.58934508
H        0.91378712      -0.49054212       1.48778313
H        0.37805551      -1.97980802      -3.50223463
H        1.70792620      -0.89182032      -3.92286506
H        1.98911841      -2.24643801      -2.87393667
O       -1.34240401      -0.36022406       0.35953828
O       -0.89235129      -0.99666421      -0.48406824
22
Properties=species:S:1:pos:R:3 energy=-2167.7421192095417 pbc="F F F"
O       -0.12319631       1.46260183       2.57429514
C       -0.14736598       2.31784702       1.72699604
C        0.71712928       2.34864582       0.51690299
C        1.50634669       1.13374902       0.08427182
C        1.37986895      -0.33062988       0.49496613
C        0.66537560      -1.09268890      -0.62101843
H        0.78348683      -2.18408310      -0.54005289
C        0.95440995      -0.55946006      -2.01998132
O        0.99104848       0.60857517      -2.35324919
C        1.25063173      -1.50794658      -3.12585301
H       -0.80839288       3.19225225       1.77826437
H        0.07504725       2.60151837      -0.36426938
H        1.42390420       3.19764072       0.53959538
H        1.26961094       1.25232235      -0.95218832
H        2.58607251       1.36262416       0.04545688
H        2.39437965      -0.76497994       0.59570419
H        0.92059254      -0.49111880       1.49345561
H        0.34082663      -1.95710759      -3.50808274
H        1.70186043      -0.90726040      -3.92718889
H        1.95048842      -2.28456796      -2.89652477
O       -1.33406887      -0.34411574       0.32422722
O       -0.87543405      -1.01756176      -0.48859882
22
Properties=species:S:1:pos:R:3 energy=-2167.6646670587324 pbc="F F F"
O       -0.16665794       1.44806316       2.55990737
C       -0.15855989       2.32043618       1.72981167
C        0.72542307       2.35914391       0.53318845
C        1.49120752       1.13664365       0.08390502
C        1.38462594      -0.32631889       0.50075312
C        0.68204619      -1.09827964      -0.61789704
H        0.80780575      -2.18858157      -0.53255199
C        0.97954603      -0.56780041      -2.01612792
O        1.05814413       0.60062484      -2.34242543
C        1.23363834      -1.51786603      -3.13256867
H       -0.80305503       3.20766221       1.78603814
H        0.10065956       2.64192176      -0.35216119
H        1.44732312       3.19335956       0.58199518
H        1.20967731       1.24583388      -0.94009529
H        2.57132366       1.36394855       0.00215231
H        2.40420363      -0.74839182       0.60157924
H        0.92763898      -0.49141169       1.49884416
H        0.30481255      -1.93313012      -3.51287681
H        1.69549184      -0.92243038      -3.93152087
H        1.91094446      -2.32076927      -2.91832399
O       -1.32543153      -0.32844085       0.28819920
O       -0.85818571      -1.03796103      -0.49269668
22
Properties=species:S:1:pos:R:3 energy=-2167.6084570737644 pbc="F F F"
O       -0.20973173       1.43460764       2.54400443
C       -0.16946043       2.32315802       1.73203758
C        0.73387297       2.36913132       0.54913375
C        1.47614560       1.13949324       0.08332445
C        1.38956488      -0.32187406       0.50618664
C        0.69863040      -1.10384330      -0.61470667
H        0.83200751      -2.19300694      -0.52470550
C        1.00465948      -0.57652013      -2.01232936
O        1.12520391       0.59077991      -2.33159388
C        1.21665871      -1.52684137      -3.13883364
H       -0.79745380       3.22262672       1.79389944
H        0.12699952       2.68153957      -0.33953669
H        1.47024082       3.18783899       0.62415289
H        1.14904467       1.23812673      -0.92699654
H        2.55494684       1.36532438      -0.04117438
H        2.41412714      -0.73162041       0.60695877
H        0.93491217      -0.49141040       1.50393816
H        0.27005438      -1.90788957      -3.51660790
H        1.68882682      -0.93730867      -3.93587109
H        1.87052037      -2.35499306      -2.93929012
O       -1.31650824      -0.31322127       0.25151115
O       -0.84063997      -1.05784132      -0.49637349
22
Properties=species:S:1:pos:R:3 energy=-2167.576539058284 pbc="F F F"
O       -0.25236947       1.42225200       2.52659207
C       -0.18005909       2.32601450       1.73366784
C        0.74247287       2.37859497       0.56472591
C        1.46120789       1.14230431       0.08252674
C        1.39468640      -0.31729422       0.51125318
C        0.71511131      -1.10937686      -0.61144717
H        0.85607130      -2.19735677      -0.51651626
C        1.02972649      -0.58561984      -2.00859655
O        1.19214583       0.57902150      -2.32077893
C        1.19971664      -1.53485737      -3.14464533
H       -0.79160018       3.23713204       1.80184607
H        0.15405013       2.72032323      -0.32640022
H        1.49262982       3.18107885       0.66603457
H        1.08776618       1.22919283      -0.91292106
H        2.53695032       1.36675700      -0.08445460
H        2.42414859      -0.71468076       0.61183129
H        0.94239783      -0.49110457       1.50872698