22
Properties=species:S:1:pos:R:3:momenta:R:3:forces:R:3 pbc="F F F"
O       -0.13564640      -0.18575611       3.81554909       1.42908803       0.05870253       1.78406565       0.00510228       0.11554849      -0.03107940
C       -0.12595163       0.99949393       3.58650743      -0.49607531       0.17969022      -0.13471640      -0.05764240      -0.12765832      -0.01073384
C        0.55385867       1.56900717       2.34605424      -1.71792315       0.44228421       0.58459502       0.03173865       0.01315516       0.02752587
C       -0.33311726       1.78231721       1.17745645       1.16632186       1.54978437      -1.61608840       0.95791428       0.93913685      -0.22446202
C        0.30333542       1.76411151      -0.19203532      -0.58527684      -0.20453499      -0.48637291       0.00479358      -0.00760346      -0.00340963
C       -0.25169894       0.72217241      -1.21598877       1.78262695       0.00436673       2.24154365      -0.04719355       0.13419726      -0.07301566
H        0.52098782       0.46231378      -1.98448985      -0.12400792      -0.00219092       0.75998755       0.06043801       0.06077564       0.01309760
C       -1.46582053       1.36550599      -1.92315925       0.26593502       1.24124458      -0.87164818      -0.04865646       0.03001615      -0.03938272
O       -1.26512680       2.29488931      -2.67476158       3.17699370       0.63527944      -2.48289591      -0.03558790      -0.11293769       0.04206590
C       -2.81676323       0.83176521      -1.60412562      -0.37714923       0.43140760      -0.49040339      -0.01951071       0.00104887      -0.02292864
H       -0.56398261       1.72741435       4.28508212      -0.08756969       0.24975926       0.03113478      -0.05097609       0.08214563      -0.11254959
H        1.05120649       2.53283018       2.59737139       0.03942005       0.14597452       0.16151934       0.02138993       0.03795281       0.02306460
H        1.38912292       0.87434263       2.07715210       0.76229766       0.11451897       0.05295695       0.00402402      -0.00726075      -0.01752054
H       -0.94163341       0.48152118       0.75335512      -0.27681927      -0.52298855       0.41823952      -1.89371922      -3.09499604       0.77778613
H       -1.32710448       2.18426047       1.31086657      -0.00838396      -0.12097996      -0.52668887      -0.00536175       0.05271248      -0.00161952
H        0.18450128       2.77860009      -0.65115836       0.04504624       0.50568873      -0.18543376       0.06640851      -0.03858572       0.02388443
H        1.39743192       1.60171270      -0.09763837      -0.55128224       0.07401344       0.10585068       0.01245220      -0.01151088      -0.04194830
H       -3.27933376       1.41015892      -0.78757759       0.30137044      -0.19177126      -0.72655099      -0.00541500      -0.07524176      -0.04780834
H       -3.49388587       0.90051468      -2.46897115       0.16460982       0.20253460       0.07271469       0.00014993      -0.00439258       0.02124387
H       -2.78810388      -0.22640773      -1.27261385      -0.34863452       0.31458489       0.03022421      -0.00191674       0.05584746       0.01421179
O       -1.33651562      -0.55765238       0.44117985       1.20223786      -0.79417132       0.82030641       0.98711186       1.79132652      -0.36046974
O       -0.49638510      -0.60881582      -0.70867940       0.90013059       2.08074484       1.08139736       0.01445658       0.16632388       0.04404776
