9
Properties=species:S:1:pos:R:3 energy=-723.0545440940389 pbc="F F F"
C       -7.04984609       0.68070579       1.15623849
C       -5.67653331       1.05141922       1.50021690
H       -7.59550338       0.55855961       2.09608081
H       -7.07998516      -0.25492134       0.58589208
H       -7.52917498       1.46612582       0.56071545
C       -4.54475787       1.36249896       1.79415372
H       -3.55415172       1.65466257       2.03938381
O       -6.14514739       1.03073476       3.95562527
H       -5.60095409       0.17657761       3.97699648
