9
Properties=species:S:1:pos:R:3:momenta:R:3:forces:R:3 pbc="F F F"
C       -6.13890428       2.10749645       2.43262727       1.36677674       1.09021379       0.95781532       0.06493435       0.09098638       0.15081008
C       -6.68094012       3.16361886       3.24331824       0.40701367       1.22227874       0.08003108      -0.23994887       0.15360792      -0.01165945
H       -6.03093677       1.16494939       3.00111093      -0.30703946       0.15210468      -0.01528131      -0.05938347       0.04826641      -0.04614884
H       -5.13203922       2.37399832       2.05618148      -0.22395178       0.13527353       0.27718918      -0.07576940      -0.02215585       0.00018392
H       -6.77656594       1.89763678       1.55217201      -0.27864455      -0.58977316       0.21789691       0.01210367       0.01399256       0.09608493
C       -7.13206468       4.08986091       3.87917997       0.45576267       1.41921216       1.36238722       0.11257734      -0.44815913      -0.10861090
H       -7.48592293       4.89233071       4.42088024      -0.27492465       0.15059882       0.62870974      -0.07662078      -0.03539997       0.01027759
O       -8.96470956       2.28855194       4.12342525      -1.62479010       0.27240460       0.99861659       0.21454382       0.15126130      -0.07359645
H       -8.80138278       2.12569467       5.07278673       0.01909715      -0.17355805       0.02811912       0.04756333       0.04760039      -0.01734089
