22
Properties=species:S:1:pos:R:3 energy=-2169.395080746778 pbc="F F F"
O       -1.71886200       2.64616100       2.31016500
C       -0.90396000       2.43951900       1.49814400
C       -0.56412400       2.67038200       0.09772500
C        0.73020400       1.95481000      -0.30958100
C        0.65580400       0.43310300      -0.13213500
C       -0.46955100      -0.26447400      -0.90341500
H       -0.33405400      -1.37070600      -0.87289400
C       -0.61204400       0.25224300      -2.34720200
O       -1.27827600       1.22038700      -2.61864800
C        0.14702800      -0.53856200      -3.36828800
H       -2.07905000      -0.31155400       1.49067300
H       -1.40736100       2.31156400      -0.55600200
H       -0.48391000       3.76082300      -0.10597800
H        0.96114500       2.20876000      -1.36374100
H        1.57659000       2.34485600       0.29211600
H        1.62850500      -0.01667500      -0.41240500
H        0.51606500       0.19993000       0.94742900
H       -0.32580300      -1.51621500      -3.54650000
H        0.16586000      -0.01820700      -4.33944000
H        1.18686500      -0.72594100      -3.07345200
O       -1.96116200      -0.93138400       0.70678800
O       -1.77136200       0.03270400      -0.32173100
22
Properties=species:S:1:pos:R:3 energy=-2169.3068917142045 pbc="F F F"
O       -1.72707874       2.57866295       2.32984053
C       -0.90711053       2.38865560       1.52594511
C       -0.55077674       2.67921831       0.06447448
C        0.73812060       1.96506837      -0.32393532
C        0.66676076       0.44369337      -0.13660383
C       -0.47101876      -0.25221495      -0.89487081
H       -0.33962964      -1.35874388      -0.85415469
C       -0.61475248       0.24942169      -2.34432156
O       -1.28660582       1.21128621      -2.62545538
C        0.14888226      -0.54113942      -3.36031064
H       -2.13468458      -0.30531050       1.47777516
H       -1.41099822       2.30675000      -0.54393952
H       -0.47611404       3.76947863      -0.11505898
H        0.96939846       2.20798628      -1.38374079
H        1.58627074       2.36272858       0.26957400
H        1.63856814      -0.00886684      -0.41617601
H        0.53081930       0.21717298       0.94523554
H       -0.33584130      -1.50529923      -3.56496477
H        0.19501723      -0.01033780      -4.32432947
H        1.17788783      -0.75553705      -3.05452520
O       -1.98129219      -0.92613679       0.70995704
O       -1.75727526       0.06498747      -0.30878689
22
Properties=species:S:1:pos:R:3 energy=-2169.0837193258026 pbc="F F F"
O       -1.73508321       2.51096710       2.34972480
C       -0.91011482       2.33624542       1.55372845
C       -0.53781091       2.68821419       0.03197171
C        0.74591713       1.97524955      -0.33840268
C        0.67753694       0.45439754      -0.14091237
C       -0.47219087      -0.24001309      -0.88630673
H       -0.34492411      -1.34679558      -0.83546237
C       -0.61751317       0.24648557      -2.34124916
O       -1.29521079       1.20187095      -2.63172168
C        0.15070271      -0.54383112      -3.35241221
H       -2.18934529      -0.29873489       1.46399654
H       -1.41404064       2.30287273      -0.53227641
H       -0.46827681       3.77840200      -0.12535213
H        0.97738032       2.20708270      -1.40363191
H        1.59585653       2.38035968       0.24694717
H        1.64839242      -0.00103694      -0.41959157
H        0.54522276       0.23477364       0.94318583
H       -0.34551827      -1.49399000      -3.58315283
H        0.22396190      -0.00273191      -4.30833716
H        1.16827011      -0.78482411      -3.03573894
O       -2.00138390      -0.92029894       0.71297772
O       -1.74328103       0.09685950      -0.29635607
22
Properties=species:S:1:pos:R:3 energy=-2168.7801226168176 pbc="F F F"
O       -1.74287116       2.44307843       2.36980232
C       -0.91298129       2.28234235       1.58146869
C       -0.52521700       2.69736481       0.00020699
C        0.75359295       1.98535024      -0.35297801
C        0.68812576       0.46521280      -0.14506249
C       -0.47308074      -0.22786978      -0.87772256
H       -0.34994346      -1.33485913      -0.81681733
C       -0.62032672       0.24344213      -2.33798230
O       -1.30408128       1.19214829      -2.63745254
C        0.15248434      -0.54662666      -3.34457865
H       -2.24300941      -0.29182661       1.44934203
H       -1.41649973       2.29991453      -0.52101038
H       -0.46040388       3.78757367      -0.13682141
H        0.98509243       2.20605073      -1.42340886
H        1.60534514       2.39774532       0.22424057
H        1.65797434       0.00681632      -0.42266022
H        0.55927585       0.25272277       0.94127247
H       -0.35482207      -1.48229091      -3.60105234
H        0.25268222       0.00459404      -4.29147905
H        1.15802448      -0.81379575      -3.01711121
O       -2.02141615      -0.91387241       0.71584250
O       -1.72939761       0.12830881      -0.28441023
22
Properties=species:S:1:pos:R:3 energy=-2168.445983352322 pbc="F F F"
O       -1.75043835       2.37500191       2.39005759
C       -0.91571835       2.22700028       1.60914052
C       -0.51298549       2.70666532      -0.03082939
C        0.76114746       1.99536713      -0.36765625
C        0.69852045       0.47613647      -0.14905603
C       -0.47370173      -0.21578638      -0.86911814
H       -0.35469374      -1.32293252      -0.79821988
C       -0.62319376       0.24029888      -2.33451848
O       -1.31320769       1.18212527      -2.64265354
C        0.15422211      -0.54951556      -3.33679588
H       -2.29565423      -0.28458513       1.43381651
H       -1.41838699       2.29785769      -0.51013914
H       -0.45250082       3.79697423      -0.14943076
H        0.99253662       2.20489180      -1.44306617
H        1.61473429       2.41488148       0.20145926
H        1.66731039       0.01469461      -0.42539051
H        0.57297903       0.27101118       0.93948806
H       -0.36374090      -1.47020556      -3.61865143
H        0.28116641       0.01162343      -4.27377109
H        1.14716356      -0.84244553      -2.99866000
O       -2.04136796      -0.90685913       0.71854381
O       -1.71564334       0.15932413      -0.27292106
22
Properties=species:S:1:pos:R:3 energy=-2168.132355762348 pbc="F F F"
O       -1.75778055       2.30674251       2.41047512
C       -0.91833441       2.17027310       1.63671860
C       -0.50110683       2.71611089      -0.06114713
C        0.76858003       2.00529689      -0.38243232
C        0.70871423       0.48716584      -0.15289485
C       -0.47406726      -0.20376426      -0.86049328
H       -0.35918099      -1.31101376      -0.77967031
C       -0.62611496       0.23706333      -2.33085521
O       -1.32258038       1.17180895      -2.64733031
C        0.15591102      -0.55248738      -3.32904985
H       -2.34725703      -0.27700991       1.41742489
H       -1.41971389       2.29668456      -0.49966040
H       -0.44457319       3.80658426      -0.16314414
H        0.99971475       2.20360739      -1.46259834
H        1.62402174       2.43176418       0.17860829
H        1.67639705       0.02259956      -0.42779098
H        0.58633276       0.28962966       0.93782521
H       -0.37226291      -1.45773758      -3.63593826
H        0.30940268       0.01833964      -4.25522926
H        1.13570000      -0.87076700      -2.98040331
O       -2.06121834      -0.89926105       0.72107410
O       -1.70203654       0.18989418      -0.26186026
22
Properties=species:S:1:pos:R:3 energy=-2167.8816199105736 pbc="F F F"
O       -1.76489352       2.23830520       2.43103944
C       -0.92083789       2.11221471       1.66417762
C       -0.48957152       2.72569667      -0.09075595
C        0.77589003       2.01513623      -0.39730117
C        0.71870033       0.49829824      -0.15658081
C       -0.47419069      -0.19180477      -0.85184780
H       -0.36341125      -1.29910084      -0.76116891
C       -0.62909095       0.23374297      -2.32698998
O       -1.33218974       1.16120638      -2.65148845
C        0.15754603      -0.55553166      -3.32132650
H       -2.39779509      -0.26910042       1.40017204
H       -1.42049194       2.29637744      -0.48957188
H       -0.43662655       3.81638433      -0.17792549
H        1.00662865       2.20219894      -1.48199989
H        1.63320523       2.44838940       0.15569272
H        1.68523083       0.03053282      -0.42987017
H        0.59933752       0.30856902       0.93627652
H       -0.38037629      -1.44489055      -3.65290098
H        0.33737925       0.02472605      -4.23586953
H        1.12364642      -0.89875373      -2.96235914
O       -2.08094634      -0.89108010       0.72342581
O       -1.68859552       0.22000768      -0.25119952
22
Properties=species:S:1:pos:R:3 energy=-2167.702638227229 pbc="F F F"
O       -1.77177301       2.16969495       2.45173505
C       -0.92323721       2.05287899       1.69149224
C       -0.47837002       2.73541782      -0.11966554
C        0.78307684       2.02488182      -0.41225773
C        0.72847195       0.50953095      -0.16011575
C       -0.47408543      -0.17990928      -0.84318152
H       -0.36739056      -1.28719179      -0.74271597
C       -0.63212238       0.23034532      -2.32292030
O       -1.34202616       1.15032463      -2.65513357
C        0.15912213      -0.55863793      -3.31361176
H       -2.44724572      -0.26085611       1.38206286
H       -1.42073260       2.29691865      -0.47987128
H       -0.42866646       3.82635502      -0.19373878
H        1.01328017       2.20066791      -1.50126533
H        1.64228250       2.46475315       0.13271760
H        1.69380821       0.03849604      -0.43163662
H        0.61199375       0.32782007       0.93483459
H       -0.38806922      -1.43166809      -3.66952773
H        0.36508432       0.03076604      -4.21570786
H        1.11101546      -0.92639928      -2.94454547
O       -2.10053095      -0.88231825       0.72559138
O       -1.67533862       0.24965335      -0.24091051
22
Properties=species:S:1:pos:R:3 energy=-2167.577624900392 pbc="F F F"
O       -1.77841479       2.10091672       2.47254646
C       -0.92554078       1.99231985       1.71863715
C       -0.46749281       2.74526950      -0.14788562
C        0.79013984       2.03453037      -0.42729693
C        0.73802234       0.52086129      -0.16350154
C       -0.47376485      -0.16807913      -0.83449425
H       -0.37112499      -1.27528459      -0.72431178
C       -0.63520991       0.22687788      -2.31864367
O       -1.35208001       1.13917075      -2.65827127
C        0.16063429      -0.56179574      -3.30589158
H       -2.49558619      -0.25227645       1.36310224
H       -1.42044738       2.29829051      -0.47055631
H       -0.42069848       3.83647690      -0.21054794
H        1.01967115       2.19901577      -1.52038918
H        1.65125129       2.48085142       0.10968798
H        1.70212568       0.04649087      -0.43309888
H        0.62430193       0.34737359       0.93349202
H       -0.39532986      -1.41807380      -3.68580666
H        0.39250612       0.03644298      -4.19476023
H        1.09781976      -0.95369720      -2.92698032
O       -2.11995121      -0.87297742       0.72756326
O       -1.66228415       0.27881994      -0.23096494
22
Properties=species:S:1:pos:R:3 energy=-2167.4851868049627 pbc="F F F"
O       -1.78481462       2.03197549       2.49345819
C       -0.92775701       1.93059116       1.74558702
C       -0.45693036       2.75524688      -0.17542590
C        0.79707840       2.04407855      -0.44241370
C        0.74734470       0.53228656      -0.16674002
C       -0.47324235      -0.15631570      -0.82578583
H       -0.37462055      -1.26337725      -0.70595666
C       -0.63835416       0.22334814      -2.31415760
O       -1.36234167       1.12775179      -2.66090718
C        0.16207750      -0.56499464      -3.29815188
H       -2.54279378      -0.24336089       1.34329506
H       -1.41964774       2.30047534      -0.46162469
H       -0.41272819       3.84673056      -0.22831693
H        1.02580343       2.19724396      -1.53936595
H        1.66010937       2.49668022       0.08660892
H        1.71017973       0.05451895      -0.43426550
H        0.63626252       0.36722040       0.93224140
H       -0.40214640      -1.40411129      -3.70172591
H        0.41963284       0.04174025      -4.17304260
H        1.08407194      -0.98064106      -2.90968166
O       -2.13918614      -0.86305956       0.72933389
O       -1.64945044       0.30749615      -0.22133448
22
Properties=species:S:1:pos:R:3 energy=-2165.4251966236793 pbc="F F F"
O       -1.79096826       1.96287623       2.51445474
C       -0.92989431       1.86774683       1.77231653
C       -0.44667316       2.76534510      -0.20229608
C        0.80389190       2.05352305      -0.45760298
C        0.75643227       0.54380407      -0.16983305
C       -0.47253132      -0.14462034      -0.81705607
H       -0.37788332      -1.25146779      -0.68765087
C       -0.64155581       0.21976363      -2.30945958
O       -1.37280154       1.11607480      -2.66304690
C        0.16344673      -0.56822415      -3.29037860
H       -2.58884579      -0.23410891       1.32264623
H       -1.41834519       2.30345546      -0.45307412
H       -0.40476114       3.85709657      -0.24700971
H        1.03167885       2.19535394      -1.55819016
H        1.66885445       2.51223554       0.06348548
H        1.71796686       0.06258193      -0.43514500
H        0.64787598       0.38735128       0.93107535
H       -0.40850701      -1.38978416      -3.71727364
H        0.44645271       0.04664124      -4.15057093
H        1.06978464      -1.00722442      -2.89266751
O       -2.15821476      -0.85256662       0.73089571
O       -1.63685581       0.33567071      -0.21199084
22
Properties=species:S:1:pos:R:3 energy=-2165.278190234324 pbc="F F F"
O       -1.79687146       1.89362391       2.53552063
C       -0.93196111       1.80384075       1.79880035
C       -0.43671167       2.77555934      -0.22850586
C        0.81057972       2.06286057      -0.47285970
C        0.76527826       0.55541113      -0.17278249
C       -0.47164514      -0.13299442      -0.80830478
H       -0.38091931      -1.23955420      -0.66939473
C       -0.64481548       0.21613183      -2.30454712
O       -1.38344998       1.10414686      -2.66469603
C        0.16473697      -0.57147384      -3.28255769
H       -2.63371950      -0.22451995       1.30116063
H       -1.41655120       2.30721319      -0.44490231
H       -0.39680289       3.86755551      -0.26659022
H        1.03729927       2.19334716      -1.57685632
H        1.67748430       2.52751339       0.04032271
H        1.72548356       0.07068145      -0.43574594
H        0.65914276       0.40775706       0.92998647
H       -0.41439987      -1.37509603      -3.73243800
H        0.47295395       0.05112931      -4.12736121
H        1.05497050      -1.03344084      -2.87595585
O       -2.17701609      -0.84150053       0.73224118
O       -1.62451859       0.36333236      -0.20290570
22
Properties=species:S:1:pos:R:3 energy=-2165.2911523620114 pbc="F F F"
O       -1.80252000       1.82422350       2.55664036
C       -0.93396580       1.73892680       1.82501316
C       -0.42703637       2.78588475      -0.25406496
C        0.81714123       2.07208778      -0.48817880
C        0.77387590       0.56710504      -0.17559018
C       -0.47059720      -0.12143929      -0.79953179
H       -0.38373459      -1.22763448      -0.65118852
C       -0.64813383       0.21246026      -2.29941771
O       -1.39427738       1.09197500      -2.66586019
C        0.16594318      -0.57473323      -3.27467508
H       -2.67739220      -0.21459349       1.27884314
H       -1.41427726       2.31173085      -0.43710698
H       -0.38885901       3.87808796      -0.28702241
H        1.04266651       2.19122509      -1.59535895
H        1.68599665       2.54250975       0.01712566
H        1.73272632       0.07881916      -0.43607686
H        0.67006335       0.42842852       0.92896734
H       -0.41981314      -1.36005050      -3.74720712
H        0.49912475       0.05518785      -4.10342939
H        1.03964214      -1.05928387      -2.85956467
O       -2.19556915      -0.82986325       0.73336272
O       -1.61245709       0.39046980      -0.19405076
22
Properties=species:S:1:pos:R:3 energy=-2165.3111902222463 pbc="F F F"
O       -1.80790962       1.75467996       2.57779845
C       -0.93591682       1.67305888       1.85092963
C       -0.41763773       2.79631649      -0.27898309
C        0.82357581       2.08120139      -0.50355521
C        0.78221841       0.57888311      -0.17825799
C       -0.46940090      -0.10995631      -0.79073692
H       -0.38633520      -1.21570664      -0.63303254
C       -0.65151150       0.20875642      -2.29406887
O       -1.40527412       1.07956628      -2.66654499
C        0.16706035      -0.57799186      -3.26671670
H       -2.71984118      -0.20432898       1.25569867
H       -1.41153486       2.31699075      -0.42968583
H       -0.38093507       3.88867449      -0.30827024
H        1.04778243       2.18898919      -1.61369255
H        1.69438925       2.55722064      -0.00610061
H        1.73969163       0.08699670      -0.43614629
H        0.68063819       0.44935646       0.92801059
H       -0.42473501      -1.34465116      -3.76156916
H        0.52495334       0.05880024      -4.07879145
H        1.02381221      -1.08474708      -2.84351198
O       -2.21385297      -0.81765671       0.73425278
O       -1.60068964       0.41707177      -0.18539769
22
Properties=species:S:1:pos:R:3 energy=-2165.3349396747662 pbc="F F F"
O       -1.81303609       1.68499827       2.59897941
C       -0.93782257       1.60629088       1.87652445
C       -0.40850624       2.80684971      -0.30326994
C        0.82988284       2.09019807      -0.51898386
C        0.79029902       0.59074264      -0.18078776
C       -0.46806961      -0.09854684      -0.78191998
H       -0.38872718      -1.20376870      -0.61492708
C       -0.65494914       0.20502781      -2.28849810
O       -1.41643059       1.06692777      -2.66675604
C        0.16808346      -0.58123929      -3.25866850
H       -2.76104371      -0.19372588       1.23173209
H       -1.40833549       2.32297521      -0.42263658
H       -0.37303661       3.89929568      -0.33029766
H        1.05264886       2.18664089      -1.63185165
H        1.70265985       2.57164204      -0.02935104
H        1.74637598       0.09521573      -0.43596279
H        0.69086776       0.47053169       0.92710880
H       -0.42915366      -1.32890164      -3.77551226
H        0.55042793       0.06194985      -4.05346335
H        1.00749333      -1.10982404      -2.82781578
O       -2.23184656      -0.80488286       0.73490381
O       -1.58923457       0.44312700      -0.17691819
22
Properties=species:S:1:pos:R:3 energy=-2165.3597585672587 pbc="F F F"
O       -1.81789518       1.61518340       2.62016776
C       -0.93969146       1.53867670       1.90177228
C       -0.39963235       2.81747959      -0.32693522
C        0.83606170       2.09907452      -0.53445969
C        0.79811094       0.60268094      -0.18318136
C       -0.46661674      -0.08721225      -0.77308081
H       -0.39091657      -1.19181864      -0.59687244
C       -0.65844740       0.20128194      -2.28270289
O       -1.42773717       1.05406652      -2.66649894
C        0.16900748      -0.58446506      -3.25051641
H       -2.80097709      -0.18278366       1.20694831
H       -1.40469062       2.32966656      -0.41595693
H       -0.36516922       3.90993210      -0.35306861
H        1.05726766       2.18418167      -1.64983075
H        1.71080618       2.58576997      -0.05262059
H        1.75277586       0.10347789      -0.43553490
H        0.70075251       0.49194501       0.92625458
H       -0.43305726      -1.31280554      -3.78902458
H        0.57553673       0.06462007      -4.02746106
H        0.99069813      -1.13450829      -2.81249405
O       -2.24952895      -0.79154365       0.73530825
O       -1.57811018       0.46862420      -0.16858396
22
Properties=species:S:1:pos:R:3 energy=-2165.383775108106 pbc="F F F"
O       -1.82248264       1.54524032       2.64134799
C       -0.94153192       1.47027022       1.92664781
C       -0.39100656       2.82820128      -0.34998865
C        0.84211175       2.10782743      -0.54997763
C        0.80564740       0.61469532      -0.18544063
C       -0.46505565      -0.07595390      -0.76421920
H       -0.39290943      -1.17985447      -0.57886890
C       -0.66200692       0.19752631      -2.27668075
O       -1.43918423       1.04098957      -2.66577930
C        0.16982740      -0.58765869      -3.24224637
H       -2.83961860      -0.17150178       1.18135221
H       -1.40061175       2.33704711      -0.40964460
H       -0.35733844       3.92056435      -0.37654705
H        1.06164065       2.18161298      -1.66762438
H        1.71882600       2.59960041      -0.07590419
H        1.75888777       0.11178482      -0.43487116
H        0.71029291       0.51358722       0.92544053
H       -0.43643397      -1.29636645      -3.80209425
H        0.60026795       0.06679426      -4.00080055
H        0.97343927      -1.15879340      -2.79756479
O       -2.26687916      -0.77764101       0.73545854
O       -1.56733482       0.49355210      -0.16036667
22
Properties=species:S:1:pos:R:3 energy=-2165.405835492172 pbc="F F F"
O       -1.82679423       1.47517400       2.66250463
C       -0.94335235       1.40112534       1.95112571
C       -0.38261934       2.83900993      -0.37243993
C        0.84803239       2.11645348      -0.56553262
C        0.81290161       0.62678308      -0.18756743
C       -0.46339976      -0.06477313      -0.75533499
H       -0.39471178      -1.16787420      -0.56091677
C       -0.66562836       0.19376843      -2.27042918
O       -1.45076216       1.02770400      -2.66460274
C        0.17053819      -0.59080975      -3.23384432
H       -2.87694553      -0.15987969       1.15494868
H       -1.39611035       2.34509918      -0.40369729
H       -0.34954985       3.93117299      -0.40069694
H        1.06576969       2.17893627      -1.68522704
H        1.72671704       2.61312936      -0.09919679
H        1.76470819       0.12013818      -0.43398010
H        0.71948942       0.53544912       0.92465926
H       -0.43927199      -1.27958800      -3.81470944
H        0.62460981       0.06845582      -3.97349780
H        0.95572935      -1.18267293      -2.78304600
O       -2.28387621      -0.76317689       0.73534713
O       -1.55692680       0.51789943      -0.15223803
22
Properties=species:S:1:pos:R:3 energy=-2165.4253823150098 pbc="F F F"
O       -1.83082571       1.40498940       2.68362219
C       -0.94516117       1.33129595       1.97518065
C       -0.37446115       2.84990071      -0.39429876
C        0.85382298       2.12494936      -0.58111958
C        0.81986682       0.63894152      -0.18956362
C       -0.46166243      -0.05367132      -0.74642800
H       -0.39632969      -1.15587584      -0.54301634
C       -0.66931235       0.19001580      -2.26394568
O       -1.46246133       1.01421685      -2.66297486
C        0.17113483      -0.59390776      -3.22529619
H       -2.91293516      -0.14791687       1.12774261
H       -1.39119793       2.35380508      -0.39811272
H       -0.34180901       3.94173860      -0.42548221
H        1.06965662       2.17615301      -1.70263326
H        1.73447705       2.62635284      -0.12249334
H        1.77023363       0.12853960      -0.43287028
H        0.72834250       0.55752151       0.92390335
H       -0.44155948      -1.26247378      -3.82685828
H        0.64855053       0.06958811      -3.94556875
H        0.93758103      -1.20614045      -2.76895567
O       -2.30049912      -0.74815323       0.73496646
O       -1.54690444       0.54165491      -0.14416971
22
Properties=species:S:1:pos:R:3 energy=-2165.4423028915458 pbc="F F F"
O       -1.83457284       1.33469150       2.70468517
C       -0.94696679       1.26083594       1.99878732
C       -0.36652248       2.86086878      -0.41557486
C        0.85948289       2.13331176      -0.59673346
C        0.82653623       0.65116796      -0.19143104
C       -0.45985707      -0.04264983      -0.73749804
H       -0.39776919      -1.14385739      -0.52516790
C       -0.67305955       0.18627593      -2.25722776
O       -1.47427214       1.00053517      -2.66090128
C        0.17161231      -0.59694228      -3.21658792
H       -2.94756479      -0.13561276       1.09973889
H       -1.38588595       2.36314715      -0.39288860
H       -0.33412147       3.95224175      -0.45086683
H        1.07330328       2.17326464      -1.71983753
H        1.74210378       2.63926683      -0.14578879
H        1.77546056       0.13699074      -0.43155024
H        0.73685263       0.57979520       0.92316542
H       -0.44328463      -1.24502740      -3.83852891
H        0.67207830       0.07017452      -3.91702940
H        0.91900693      -1.22918950      -2.75531180
O       -2.31672692      -0.73257198       0.73430897
O       -1.53728606       0.56480727      -0.13613342
22
Properties=species:S:1:pos:R:3 energy=-2165.488752336723 pbc="F F F"
O       -1.83803139       1.26428527       2.72567809
C       -0.94877763       1.18979920       2.02192038
C       -0.35879380       2.87190929      -0.43627793
C        0.86501152       2.14153737      -0.61236918
C        0.83290306       0.66345970      -0.19317155
C       -0.45799705      -0.03171000      -0.72854494
H       -0.39903634      -1.13181684      -0.50737175
C       -0.67687060       0.18255631      -2.25027291
O       -1.48618497       0.98666603      -2.65838760
C        0.17196559      -0.59990283      -3.20770545
H       -2.98081169      -0.12296684       1.07094241
H       -1.38018592       2.37310769      -0.38802263
H       -0.32649281       3.96266304      -0.47681474
H        1.07671151       2.17027262      -1.73683439
H        1.74959496       2.65186733      -0.16907807
H        1.78038548       0.14549324      -0.43002852
H        0.74502025       0.60226098       0.92243807
H       -0.44443560      -1.22725247      -3.84970950
H        0.69518135       0.07019842      -3.88789570
H        0.90001969      -1.25181365      -2.74213238
O       -2.33253862      -0.71643508       0.73336711
O       -1.52809000       0.58734522      -0.12810083
22
Properties=species:S:1:pos:R:3 energy=-2165.498377427356 pbc="F F F"
O       -1.84119711       1.19377567       2.74658546
C       -0.95060210       1.11823963       2.04455452
C       -0.35126559       2.88301741      -0.45641768
C        0.87040823       2.14962287      -0.62802169
C        0.83896055       0.67581405      -0.19478701
C       -0.45609578      -0.02085322      -0.71956851
H       -0.40013716      -1.11975221      -0.48962817
C       -0.68074615       0.17886447      -2.24307865
O       -1.49819018       0.97261649      -2.65543942
C        0.17218966      -0.60277898      -3.19863471
H       -3.01265316      -0.10997856       1.04135806
H       -1.37410931       2.38366902      -0.38351253
H       -0.31892858       3.97298302      -0.50328989
H        1.07988316       2.16717842      -1.75361834
H        1.75694835       2.66415034      -0.19235613
H        1.78500489       0.15404874      -0.42831365
H        0.75284583       0.62490965       0.92171389
H       -0.44500057      -1.20915259      -3.86038819
H        0.71784790       0.06964320      -3.85818362
H        0.88063194      -1.27400647      -2.72943542
O       -2.34791326      -0.69974447       0.73213331
O       -1.51933456       0.60925751      -0.12004364
22
Properties=species:S:1:pos:R:3 energy=-2165.5078188580937 pbc="F F F"
O       -1.84406577       1.12316768       2.76739179
C       -0.95244862       1.04621112       2.06666441
C       -0.34392831       2.89418830      -0.47600381
C        0.87567241       2.15756496      -0.64368591
C        0.84470191       0.68822831      -0.19627927
C       -0.45416663      -0.01008082      -0.71056857
H       -0.40107771      -1.10766150      -0.47193747
C       -0.68468685       0.17520788      -2.23564246
O       -1.51027818       0.95839358      -2.65206237
C        0.17227950      -0.60556025      -3.18936165
H       -3.04306647      -0.09664739       1.01099074
H       -1.36766760       2.39481347      -0.37935600
H       -0.31143436       3.98318229      -0.53025625
H        1.08282006       2.16398347      -1.77018390
H        1.76416169       2.67611187      -0.21561792
H        1.78931527       0.16265890      -0.42641420
H        0.76032984       0.64773203       0.92098549
H       -0.44496772      -1.19073137      -3.87055312
H        0.74006614       0.06849222      -3.82790913
H        0.86085631      -1.29576150      -2.71723890
O       -2.36282984      -0.68250210       0.73060003
O       -1.51103809       0.63053284      -0.11193354
22
Properties=species:S:1:pos:R:3 energy=-2165.5172417938256 pbc="F F F"
O       -1.84663313       1.05246627       2.78808159
C       -0.95432559       0.97376756       2.08822472
C       -0.33677245       2.90541711      -0.49504603
C        0.88080342       2.16536033      -0.65935677
C        0.85012037       0.70069979      -0.19765018
C       -0.45222299       0.00060582      -0.70154494
H       -0.40186404      -1.09554272      -0.45429994
C       -0.68869333       0.17159408      -2.22796186
O       -1.52243933       0.94400438      -2.64826205
C        0.17223008      -0.60823618      -3.17987220
H       -3.07202893      -0.08297278       0.97984533
H       -1.36087230       2.40652335      -0.37555077
H       -0.30401569       3.99324141      -0.55767775
H        1.08552407       2.16068926      -1.78652558
H        1.77123272       2.68774791      -0.23885838
H        1.79331312       0.17132535      -0.42433868
H        0.76747275       0.67071889       0.92024548