 Entering Gaussian System, Link 0=g09
 Initial command:
 /cm/shared/apps/Gaussian09/g09/l1.exe "/local/Gau-44107.inp" -scrdir="/local/"
 Entering Link 1 = /cm/shared/apps/Gaussian09/g09/l1.exe PID=     44108.
  
 Copyright (c) 1988,1990,1992,1993,1995,1998,2003,2009,2013,
            Gaussian, Inc.  All Rights Reserved.
  
 This is part of the Gaussian(R) 09 program.  It is based on
 the Gaussian(R) 03 system (copyright 2003, Gaussian, Inc.),
 the Gaussian(R) 98 system (copyright 1998, Gaussian, Inc.),
 the Gaussian(R) 94 system (copyright 1995, Gaussian, Inc.),
 the Gaussian 92(TM) system (copyright 1992, Gaussian, Inc.),
 the Gaussian 90(TM) system (copyright 1990, Gaussian, Inc.),
 the Gaussian 88(TM) system (copyright 1988, Gaussian, Inc.),
 the Gaussian 86(TM) system (copyright 1986, Carnegie Mellon
 University), and the Gaussian 82(TM) system (copyright 1983,
 Carnegie Mellon University). Gaussian is a federally registered
 trademark of Gaussian, Inc.
  
 This software contains proprietary and confidential information,
 including trade secrets, belonging to Gaussian, Inc.
  
 This software is provided under written license and may be
 used, copied, transmitted, or stored only in accord with that
 written license.
  
 The following legend is applicable only to US Government
 contracts under FAR:
  
                    RESTRICTED RIGHTS LEGEND
  
 Use, reproduction and disclosure by the US Government is
 subject to restrictions as set forth in subparagraphs (a)
 and (c) of the Commercial Computer Software - Restricted
 Rights clause in FAR 52.227-19.
  
 Gaussian, Inc.
 340 Quinnipiac St., Bldg. 40, Wallingford CT 06492
  
  
 ---------------------------------------------------------------
 Warning -- This program may not be used in any manner that
 competes with the business of Gaussian, Inc. or will provide
 assistance to any competitor of Gaussian, Inc.  The licensee
 of this program is prohibited from giving any competitor of
 Gaussian, Inc. access to this program.  By using this program,
 the user acknowledges that Gaussian, Inc. is engaged in the
 business of creating and licensing software in the field of
 computational chemistry and represents and warrants to the
 licensee that it is not a competitor of Gaussian, Inc. and that
 it will not use this program in any manner prohibited above.
 ---------------------------------------------------------------
  

 Cite this work as:
 Gaussian 09, Revision D.01,
 M. J. Frisch, G. W. Trucks, H. B. Schlegel, G. E. Scuseria, 
 M. A. Robb, J. R. Cheeseman, G. Scalmani, V. Barone, B. Mennucci, 
 G. A. Petersson, H. Nakatsuji, M. Caricato, X. Li, H. P. Hratchian, 
 A. F. Izmaylov, J. Bloino, G. Zheng, J. L. Sonnenberg, M. Hada, 
 M. Ehara, K. Toyota, R. Fukuda, J. Hasegawa, M. Ishida, T. Nakajima, 
 Y. Honda, O. Kitao, H. Nakai, T. Vreven, J. A. Montgomery, Jr., 
 J. E. Peralta, F. Ogliaro, M. Bearpark, J. J. Heyd, E. Brothers, 
 K. N. Kudin, V. N. Staroverov, T. Keith, R. Kobayashi, J. Normand, 
 K. Raghavachari, A. Rendell, J. C. Burant, S. S. Iyengar, J. Tomasi, 
 M. Cossi, N. Rega, J. M. Millam, M. Klene, J. E. Knox, J. B. Cross, 
 V. Bakken, C. Adamo, J. Jaramillo, R. Gomperts, R. E. Stratmann, 
 O. Yazyev, A. J. Austin, R. Cammi, C. Pomelli, J. W. Ochterski, 
 R. L. Martin, K. Morokuma, V. G. Zakrzewski, G. A. Voth, 
 P. Salvador, J. J. Dannenberg, S. Dapprich, A. D. Daniels, 
 O. Farkas, J. B. Foresman, J. V. Ortiz, J. Cioslowski, 
 and D. J. Fox, Gaussian, Inc., Wallingford CT, 2013.
 
 ******************************************
 Gaussian 09:  ES64L-G09RevD.01 24-Apr-2013
                17-Feb-2021 
 ******************************************
 %nprocshared=1
 Will use up to    1 processors via shared memory.
 ----------------------------------------------------------------------
 #P pm6 scf=qc opt(calcall, ts, noeigentest, cartesian,maxcycle=100) No
 Symm
 ----------------------------------------------------------------------
 1/5=1,6=100,10=4,11=1,14=-1,18=10,26=1,38=1/1,3;
 2/12=2,15=1,17=6,18=5,29=2,40=1/2;
 3/5=2,16=1,25=1,41=3900000,71=2,140=1/1,2,3;
 4/35=1/1;
 5/5=2,8=3,35=1,38=5/8;
 8/6=4,10=90,11=11/1;
 11/6=1,8=1,9=11,15=111,16=1,31=1/1,2,10;
 10/6=1,31=1/2;
 6/7=2,8=2,9=2,10=2,18=1,28=1/1;
 7/7=1,10=1,25=1,30=1/1,2,3,16;
 1/5=1,6=100,10=4,11=1,14=-1,18=10,26=1/3(3);
 2/15=1,29=1/2;
 7/7=1,8=1,9=1,25=1,30=1,44=-1/16;
 99/12=1/99;
 2/15=1,29=1/2;
 3/5=2,16=1,25=1,41=3900000,71=2,135=20,140=1/1,2,3;
 4/5=5,16=3,35=1/1;
 5/5=2,8=3,35=1,38=5/8;
 8/6=4,10=90,11=11/1;
 11/6=1,8=1,9=11,15=111,16=1,31=1/1,2,10;
 10/6=1,31=1/2;
 7/7=1,10=1,25=1,30=1/1,2,3,16;
 1/5=1,6=100,10=4,11=1,14=-1,18=10,26=1/3(-8);
 2/15=1,29=1/2;
 6/7=2,8=2,9=2,10=2,18=1,19=2,28=1/1;
 7/7=1,8=1,9=1,25=1,30=1,44=-1/16;
 99/12=1/99;
 Leave Link    1 at Wed Feb 17 08:26:27 2021, MaxMem=           0 cpu:         0.0
 (Enter /cm/shared/apps/Gaussian09/g09/l101.exe)
 ------------------------------
 Gaussian input prepared by ASE
 ------------------------------
 Symbolic Z-matrix:
 Charge =  0 Multiplicity = 2
 O                    -0.7059    3.84294   0.58522 
 C                    -0.21332   4.77408  -0.01124 
 C                    -0.60654   5.21438  -1.40621 
 C                    -2.06299   4.95038  -1.79892 
 C                    -2.57425   3.54032  -1.48462 
 C                    -1.75177   2.44457  -2.04166 
 H                    -0.7429    2.24623  -1.70558 
 C                    -0.18515   2.99671  -3.94142 
 O                     0.84508   3.46423  -4.10444 
 C                    -0.43712   1.29017  -6.0302 
 H                     0.61353   5.3615    0.42895 
 H                    -0.40834   6.30464  -1.51971 
 H                     0.09118   4.71257  -2.11576 
 H                    -2.713     5.67807  -1.26327 
 H                    -2.19926   5.15832  -2.87658 
 H                    -2.5618    3.42421  -0.36898 
 H                    -3.63723   3.44543  -1.78589 
 H                    -1.0096    1.89598  -6.68299 
 H                     0.60464   1.16072  -6.16755 
 H                    -0.92872   0.73772  -5.25662 
 O                    -1.7669    0.64553  -3.30178 
 O                    -2.40036   1.62657  -2.85385 
 
 NAtoms=     22 NQM=       22 NQMF=       0 NMMI=      0 NMMIF=      0
                NMic=       0 NMicF=      0.
                    Isotopes and Nuclear Properties:
 (Nuclear quadrupole moments (NQMom) in fm**2, nuclear magnetic moments (NMagM)
  in nuclear magnetons)

  Atom         1           2           3           4           5           6           7           8           9          10
 IAtWgt=          16          12          12          12          12          12           1          12          16          12
 AtmWgt=  15.9949146  12.0000000  12.0000000  12.0000000  12.0000000  12.0000000   1.0078250  12.0000000  15.9949146  12.0000000
 NucSpn=           0           0           0           0           0           0           1           0           0           0
 AtZEff=   0.0000000   0.0000000   0.0000000   0.0000000   0.0000000   0.0000000   0.0000000   0.0000000   0.0000000   0.0000000
 NQMom=    0.0000000   0.0000000   0.0000000   0.0000000   0.0000000   0.0000000   0.0000000   0.0000000   0.0000000   0.0000000
 NMagM=    0.0000000   0.0000000   0.0000000   0.0000000   0.0000000   0.0000000   2.7928460   0.0000000   0.0000000   0.0000000
 AtZNuc=   8.0000000   6.0000000   6.0000000   6.0000000   6.0000000   6.0000000   1.0000000   6.0000000   8.0000000   6.0000000

  Atom        11          12          13          14          15          16          17          18          19          20
 IAtWgt=           1           1           1           1           1           1           1           1           1           1
 AtmWgt=   1.0078250   1.0078250   1.0078250   1.0078250   1.0078250   1.0078250   1.0078250   1.0078250   1.0078250   1.0078250
 NucSpn=           1           1           1           1           1           1           1           1           1           1
 AtZEff=   0.0000000   0.0000000   0.0000000   0.0000000   0.0000000   0.0000000   0.0000000   0.0000000   0.0000000   0.0000000
 NQMom=    0.0000000   0.0000000   0.0000000   0.0000000   0.0000000   0.0000000   0.0000000   0.0000000   0.0000000   0.0000000
 NMagM=    2.7928460   2.7928460   2.7928460   2.7928460   2.7928460   2.7928460   2.7928460   2.7928460   2.7928460   2.7928460
 AtZNuc=   1.0000000   1.0000000   1.0000000   1.0000000   1.0000000   1.0000000   1.0000000   1.0000000   1.0000000   1.0000000

  Atom        21          22
 IAtWgt=          16          16
 AtmWgt=  15.9949146  15.9949146
 NucSpn=           0           0
 AtZEff=   0.0000000   0.0000000
 NQMom=    0.0000000   0.0000000
 NMagM=    0.0000000   0.0000000
 AtZNuc=   8.0000000   8.0000000
 Leave Link  101 at Wed Feb 17 08:26:27 2021, MaxMem=    33554432 cpu:         0.1
 (Enter /cm/shared/apps/Gaussian09/g09/l103.exe)

 GradGradGradGradGradGradGradGradGradGradGradGradGradGradGradGradGradGrad
 Berny optimization.
 Initialization pass.
 No Z-matrix variables, so optimization will use Cartesian coordinates.
 Trust Radius=3.00D-01 FncErr=1.00D-07 GrdErr=1.00D-07
 Number of steps in this run=    100 maximum allowed number of steps=    132.
 Search for a saddle point of order  1.
 GradGradGradGradGradGradGradGradGradGradGradGradGradGradGradGradGradGrad

 Leave Link  103 at Wed Feb 17 08:26:27 2021, MaxMem=    33554432 cpu:         0.0
 (Enter /cm/shared/apps/Gaussian09/g09/l202.exe)
 ---------------------------------------------------------------------------------------------------
                            Z-MATRIX (ANGSTROMS AND DEGREES)
   CD    Cent   Atom    N1       Length/X        N2       Alpha/Y        N3        Beta/Z          J
 ---------------------------------------------------------------------------------------------------
      1      1  O        0  -0.705905          3.842940          0.585224
      2      2  C        0  -0.213323          4.774082         -0.011241
      3      3  C        0  -0.606538          5.214377         -1.406211
      4      4  C        0  -2.062993          4.950378         -1.798922
      5      5  C        0  -2.574255          3.540323         -1.484620
      6      6  C        0  -1.751766          2.444566         -2.041659
      7      7  H        0  -0.742902          2.246233         -1.705580
      8      8  C        0  -0.185149          2.996709         -3.941421
      9      9  O        0   0.845076          3.464233         -4.104444
     10     10  C        0  -0.437122          1.290168         -6.030202
     11     11  H        0   0.613535          5.361502          0.428953
     12     12  H        0  -0.408337          6.304644         -1.519714
     13     13  H        0   0.091182          4.712566         -2.115764
     14     14  H        0  -2.713005          5.678071         -1.263273
     15     15  H        0  -2.199256          5.158320         -2.876576
     16     16  H        0  -2.561803          3.424212         -0.368978
     17     17  H        0  -3.637225          3.445426         -1.785891
     18     18  H        0  -1.009604          1.895981         -6.682991
     19     19  H        0   0.604642          1.160723         -6.167550
     20     20  H        0  -0.928716          0.737724         -5.256624
     21     21  O        0  -1.766900          0.645531         -3.301781
     22     22  O        0  -2.400363          1.626572         -2.853855
 ---------------------------------------------------------------------------------------------------
                         Z-Matrix orientation:                         
 ---------------------------------------------------------------------
 Center     Atomic      Atomic             Coordinates (Angstroms)
 Number     Number       Type             X           Y           Z
 ---------------------------------------------------------------------
      1          8           0       -0.705905    3.842940    0.585224
      2          6           0       -0.213323    4.774082   -0.011241
      3          6           0       -0.606538    5.214377   -1.406211
      4          6           0       -2.062993    4.950378   -1.798922
      5          6           0       -2.574255    3.540323   -1.484620
      6          6           0       -1.751766    2.444566   -2.041659
      7          1           0       -0.742902    2.246233   -1.705580
      8          6           0       -0.185149    2.996709   -3.941421
      9          8           0        0.845076    3.464233   -4.104444
     10          6           0       -0.437122    1.290168   -6.030202
     11          1           0        0.613535    5.361502    0.428953
     12          1           0       -0.408337    6.304644   -1.519714
     13          1           0        0.091182    4.712566   -2.115764
     14          1           0       -2.713005    5.678071   -1.263273
     15          1           0       -2.199256    5.158320   -2.876576
     16          1           0       -2.561803    3.424212   -0.368978
     17          1           0       -3.637225    3.445426   -1.785891
     18          1           0       -1.009604    1.895981   -6.682991
     19          1           0        0.604642    1.160723   -6.167550
     20          1           0       -0.928716    0.737724   -5.256624
     21          8           0       -1.766900    0.645531   -3.301781
     22          8           0       -2.400363    1.626572   -2.853855
 ---------------------------------------------------------------------
                    Distance matrix (angstroms):
                    1          2          3          4          5
     1  O    0.000000
     2  C    1.210551   0.000000
     3  C    2.420026   1.514734   0.000000
     4  C    2.958421   2.578403   1.531397   0.000000
     5  C    2.804739   3.044175   2.584668   1.532458   0.000000
     6  C    3.154328   3.451963   3.063852   2.536706   1.479008
     7  H    2.792602   3.088893   2.986318   3.010607   2.253297
     8  C    4.634416   4.313487   3.394541   3.454479   3.469758
     9  O    4.953983   4.426085   3.528547   3.997615   4.308259
    10  C    7.095967   6.958134   6.067075   5.826176   5.503894
    11  H    2.017764   1.105679   2.208631   3.506601   4.140103
    12  H    3.252583   2.157810   1.113935   2.156358   3.511966
    13  H    2.947360   2.127328   1.114492   2.190300   2.979438
    14  H    3.288328   2.938229   2.161630   1.113091   2.153651
    15  H    3.993042   3.507380   2.168379   1.105959   2.167044
    16  H    2.128425   2.732303   2.846682   2.150054   1.121737
    17  H    3.791153   4.078948   3.529647   2.177902   1.108908
    18  H    7.530592   7.309567   6.246488   5.856031   5.672306
    19  H    7.383209   7.185094   6.369412   6.368883   6.139847
    20  H    6.619607   6.657178   5.913535   5.566753   4.978994
    21  O    5.143728   5.503289   5.080745   4.569241   3.511940
    22  O    4.428401   4.771836   4.264484   3.503482   2.359552
                    6          7          8          9         10
     6  C    0.000000
     7  H    1.081708   0.000000
     8  C    2.523539   2.423487   0.000000
     9  O    3.469638   3.124059   1.143030   0.000000
    10  C    4.355388   4.439585   2.709018   3.174765   0.000000
    11  H    4.495229   4.012612   5.032923   4.919851   7.707161
    12  H    4.120368   4.076418   4.105717   4.039779   6.744650
    13  H    2.923315   2.635668   2.520625   2.466078   5.226350
    14  H    3.461996   3.981765   4.555462   5.062931   6.867091
    15  H    2.874334   3.460123   3.140555   3.693988   5.292738
    16  H    2.100887   2.546084   4.312029   5.055901   6.412322
    17  H    2.149906   3.133947   4.094447   5.046491   5.735850
    18  H    4.732200   4.996841   3.067170   3.542337   1.058715
    19  H    4.921777   4.785748   2.991699   3.101673   1.058722
    20  H    3.731853   3.862647   2.717658   3.450755   1.070179
    21  O    2.196512   2.481668   2.905016   3.925782   3.102926
    22  O    1.322670   2.109430   2.822632   3.933681   3.749222
                   11         12         13         14         15
    11  H    0.000000
    12  H    2.393960   0.000000
    13  H    2.677603   1.771866   0.000000
    14  H    3.745626   2.402051   3.085840   0.000000
    15  H    4.345066   2.522405   2.454311   1.771108   0.000000
    16  H    3.804281   3.776043   3.427747   2.429507   3.070280
    17  H    5.161961   4.321076   3.951643   2.472249   2.488243
    18  H    8.076147   6.815956   5.477631   6.824889   5.152370
    19  H    7.820517   7.006314   5.412596   7.447492   5.888390
    20  H    7.488902   6.725020   5.167646   6.598300   5.178858
    21  O    6.467243   6.086626   4.626000   5.511541   4.553350
    22  O    5.814646   5.256659   4.034345   4.363753   3.537542
                   16         17         18         19         20
    16  H    0.000000
    17  H    1.778939   0.000000
    18  H    6.679189   5.769468   0.000000
    19  H    6.983781   6.512468   1.847179   0.000000
    20  H    5.811478   5.168526   1.839191   1.833003   0.000000
    21  O    4.117557   3.692622   3.683708   3.755298   2.128958
    22  O    3.071186   2.445119   4.082778   4.497516   2.954505
                   21         22
    21  O    0.000000
    22  O    1.250742   0.000000
 Symmetry turned off by external request.
 Stoichiometry    C7H11O4(2)
 Framework group  C1[X(C7H11O4)]
 Deg. of freedom    60
 Full point group                 C1      NOp   1
 Rotational constants (GHZ):      1.4417329      0.6093556      0.5049784
 Leave Link  202 at Wed Feb 17 08:26:27 2021, MaxMem=    33554432 cpu:         0.0
 (Enter /cm/shared/apps/Gaussian09/g09/l301.exe)
 Standard basis: VSTO-6G (5D, 7F)
 Ernie: Thresh=  0.10000D-02 Tol=  0.10000D-05 Strict=F.
  NNHCO=     0 NNPyr=     0 NCTC=     0               EPep=         0.000000000
    EC=       293.866365006  ECS=         4.408755896   EG=         0.313257562
   EHC=         0.002010001  EAt=       -76.388488019  AtH=         3.199295150
 EPDDG=         0.000000000  ECC=       298.590388466 EAtT=        79.587783169
    55 basis functions,   330 primitive gaussians,    55 cartesian basis functions
    32 alpha electrons       31 beta electrons
       nuclear repulsion energy       378.1781716347 Hartrees.
 IExCor=    0 DFT=F Ex=HF Corr=None ExCW=0 ScaHFX=  1.000000
 ScaDFX=  1.000000  1.000000  1.000000  1.000000 ScalE2=  1.000000  1.000000
 IRadAn=      0 IRanWt=     -1 IRanGd=            0 ICorTp=0 IEmpDi=  4
 Integral buffers will be    131072 words long.
 Regular integral format.
 Two-electron integral symmetry is turned off.
 Leave Link  301 at Wed Feb 17 08:26:27 2021, MaxMem=    33554432 cpu:         0.0
 (Enter /cm/shared/apps/Gaussian09/g09/l302.exe)
 Do NDO integrals.
 NPDir=0 NMtPBC=     1 NCelOv=     1 NCel=       1 NClECP=     1 NCelD=      1
         NCelK=      1 NCelE2=     1 NClLst=     1 CellRange=     0.0.
 One-electron integrals computed using PRISM.
 NBasis=    55 RedAO= F EigKep=  0.00D+00  NBF=    55
 NBsUse=    55 1.00D-04 EigRej=  0.00D+00 NBFU=    55
 Leave Link  302 at Wed Feb 17 08:26:27 2021, MaxMem=    33554432 cpu:         0.1
 (Enter /cm/shared/apps/Gaussian09/g09/l303.exe)
 DipDrv:  MaxL=1.
 Leave Link  303 at Wed Feb 17 08:26:27 2021, MaxMem=    33554432 cpu:         0.0
 (Enter /cm/shared/apps/Gaussian09/g09/l401.exe)
 Simple Huckel Guess.
 JPrj=0 DoOrth=F DoCkMO=F.
 Initial guess <Sx>= 0.0000 <Sy>= 0.0000 <Sz>= 0.5000 <S**2>= 0.7500 S= 0.5000
 Leave Link  401 at Wed Feb 17 08:26:27 2021, MaxMem=    33554432 cpu:         0.0
 (Enter /cm/shared/apps/Gaussian09/g09/l508.exe)
 Direct SCF.
 Tight linear equation convergence will be used.
 UPM6 wavefunction.
 Quadratic Convergence SCF Method.
 Line search only if initial step raises energy.
 Two-electron integral symmetry not used.
 ReadGW:  IGet=1 IStart=       59293 Next=       59293 LGW=           0.
 Keep J ints in memory in canonical form, NReq=909807.
 FoFCou: FMM=F IPFlag=           0 FMFlag=           0 FMFlg1=           0
         NFxFlg=           0 DoJE=F BraDBF=F KetDBF=F FulRan=T
         wScrn=  0.000000 ICntrl=     600 IOpCl=  2 I1Cent=           0 NGrid=           0
         NMat0=    1 NMatS0=    121 NMatT0=    0 NMatD0=    1 NMtDS0=    0 NMtDT0=    0
 Symmetry not used in FoFCou.
 Iteration   1 EE= 0.675244787949453                                    Grad=5.527D-01 Max rot=    5.7177 deg.
 Gradient too large for Newton-Raphson -- use scaled steepest descent instead.
 Alpha Gap=     0.234 HL deriv= 7.10D-02
  Beta Gap=     0.342 HL deriv= 1.53D-01
     ILin= 1 X=0.000D+00 Y= 6.752447879495D-01 DE= 0.00D+00 F= -7.96D-01
     ILin= 2 X=3.000D-01 Y= 4.564045405283D-01 DE=-2.19D-01 F= -6.60D-01
     ILin= 3 X=4.000D-01 Y= 3.928670204533D-01 DE=-2.82D-01 F= -6.11D-01
     ILin= 4 X=6.000D-01 Y= 2.810237186675D-01 DE=-3.94D-01 F= -5.07D-01
     ILin= 5 X=9.000D-01 Y= 1.540575876589D-01 DE=-5.21D-01 F= -3.37D-01
     ILin= 6 X=1.300D+00 Y= 6.797955382382D-02 DE=-6.07D-01 F= -8.93D-02
     ILin= 7 X=2.000D+00 Y= 1.693663003568D-01 DE=-5.06D-01 F=  3.84D-01
     An  expanding polynomial of degree  7 produced  1.4364
     Minimum is close to point  6 DX=  1.36D-01 DF= -6.11D-03 DXR=  9.50D-02 DFR=  1.01D-02 which will be used.
 Iteration   2 EE= 0.679795538238182E-01 Delta-E=       -0.607265234126 Grad=1.588D-01 Max rot=    1.7228 deg.
 Gradient too large for Newton-Raphson -- use scaled steepest descent instead.
 Alpha Gap=     0.328 HL deriv= 7.83D-02
  Beta Gap=     0.390 HL deriv= 5.98D-03
     ILin= 1 X=0.000D+00 Y= 6.797955382382D-02 DE= 0.00D+00 F= -6.33D-02
     ILin= 2 X=7.000D-01 Y= 3.311833297988D-02 DE=-3.49D-02 F= -3.61D-02
     ILin= 3 X=1.100D+00 Y= 2.192242738494D-02 DE=-4.61D-02 F= -1.98D-02
     ILin= 4 X=1.800D+00 Y= 1.830580288777D-02 DE=-4.97D-02 F=  9.72D-03
     Accept linear search using points  3 and  4.
     An  expanding polynomial of degree  4 produced  1.5213
 Iteration   3 EE= 0.172635359701303E-01 Delta-E=       -0.050716017854 Grad=5.151D-02 Max rot=    0.5952 deg.
 Gradient too large for Newton-Raphson -- use scaled steepest descent instead.
 Alpha Gap=     0.350 HL deriv= 1.82D-02
  Beta Gap=     0.398 HL deriv= 9.12D-03
     ILin= 1 X=0.000D+00 Y= 1.726353597013D-02 DE= 0.00D+00 F= -7.18D-03
     ILin= 2 X=1.500D+00 Y= 1.160539132854D-02 DE=-5.66D-03 F= -3.34D-04
     Reject lnstep minimum 1.521D+00 FVal= 1.160301242811D-02 Lims=  0.00D+00  1.50D+00
     ILin= 3 X=3.000D+00 Y= 1.635230981458D-02 DE=-9.11D-04 F=  6.69D-03
     An  expanding polynomial of degree  3 produced  1.5657
     Minimum is close to point  2 DX=  6.57D-02 DF= -9.98D-06 DXR=  4.20D-02 DFR=  1.76D-03 which will be used.
 Iteration   4 EE= 0.116053913285441E-01 Delta-E=       -0.005658144642 Grad=2.600D-02 Max rot=    0.2704 deg.
 Gradient too large for Newton-Raphson -- use scaled steepest descent instead.
 Alpha Gap=     0.354 HL deriv= 5.23D-03
  Beta Gap=     0.400 HL deriv= 1.59D-03
     ILin= 1 X=0.000D+00 Y= 1.160539132854D-02 DE= 0.00D+00 F= -1.74D-03
     ILin= 2 X=1.500D+00 Y= 1.027463814080D-02 DE=-1.33D-03 F= -2.97D-05
     Reject lnstep minimum 1.508D+00 FVal= 1.027455552590D-02 Lims=  0.00D+00  1.50D+00
     ILin= 3 X=3.100D+00 Y= 1.169265843419D-02 DE= 8.73D-05 F=  1.80D-03
     An  expanding polynomial of degree  3 produced  1.5254
     Minimum is close to point  2 DX=  2.54D-02 DF= -3.69D-07 DXR=  1.66D-02 DFR=  2.77D-04 which will be used.
 Iteration   5 EE= 0.102746381407997E-01 Delta-E=       -0.001330753188 Grad=1.487D-02 Max rot=    0.2221 deg.
 Gradient too large for Newton-Raphson -- use scaled steepest descent instead.
 Alpha Gap=     0.354 HL deriv= 1.20D-03
  Beta Gap=     0.400 HL deriv= 1.24D-03
     ILin= 1 X=0.000D+00 Y= 1.027463814080D-02 DE= 0.00D+00 F= -6.05D-04
     ILin= 2 X=1.500D+00 Y= 9.844386688883D-03 DE=-4.30D-04 F=  3.22D-05
     Accept linear search using points  1 and  2.
     An  expanding polynomial of degree  2 produced  1.4718
     Minimum is close to point  2 DX= -2.82D-02 DF= -3.01D-07 DXR=  1.92D-02 DFR=  6.98D-04 which will be used.
 Iteration   6 EE= 0.984438668888288E-02 Delta-E=       -0.000430251452 Grad=1.001D-02 Max rot=    0.1124 deg.
 Gradient too large for Newton-Raphson -- use scaled steepest descent instead.
 Alpha Gap=     0.355 HL deriv= 2.99D-04
  Beta Gap=     0.400 HL deriv= 6.45D-04
     ILin= 1 X=0.000D+00 Y= 9.844386688883D-03 DE= 0.00D+00 F= -2.65D-04
     ILin= 2 X=1.500D+00 Y= 9.670798891989D-03 DE=-1.74D-04 F=  3.38D-05
     Accept linear search using points  1 and  2.
     An  expanding polynomial of degree  2 produced  1.4270
     Minimum is close to point  2 DX= -7.30D-02 DF= -8.13D-07 DXR=  5.12D-02 DFR=  4.68D-03 which will be used.
 Iteration   7 EE= 0.967079889198885E-02 Delta-E=       -0.000173587797 Grad=7.267D-03 Max rot=    0.0993 deg.
 QCNR:  CnvC1=3.85D-09 CnvC2=3.85D-08
 LinEq1:  Iter=  0 NonCon=     1 RMS=3.07D-04 Max=5.65D-03 NDo=     1
 AX will form     1 AO Fock derivatives at one time.
 LinEq1:  Iter=  1 NonCon=     1 RMS=1.21D-04 Max=3.20D-03 NDo=     1
 LinEq1:  Iter=  2 NonCon=     1 RMS=4.43D-05 Max=1.10D-03 NDo=     1
 LinEq1:  Iter=  3 NonCon=     1 RMS=1.05D-05 Max=1.20D-04 NDo=     1
 LinEq1:  Iter=  4 NonCon=     1 RMS=1.85D-06 Max=2.68D-05 NDo=     1
 LinEq1:  Iter=  5 NonCon=     1 RMS=3.50D-07 Max=4.03D-06 NDo=     1
 LinEq1:  Iter=  6 NonCon=     1 RMS=7.18D-08 Max=9.20D-07 NDo=     1
 LinEq1:  Iter=  7 NonCon=     1 RMS=1.59D-08 Max=1.59D-07 NDo=     1
 LinEq1:  Iter=  8 NonCon=     1 RMS=3.71D-09 Max=4.71D-08 NDo=     1
 LinEq1:  Iter=  9 NonCon=     0 RMS=9.60D-10 Max=1.02D-08 NDo=     1
 Linear equations converged to 3.847D-09 3.847D-08 after     9 iterations.
 Angle between quadratic step and gradient=  91.42 degrees.
 Incorrect curvature in search direction -- initial direction reversed.
     ILin= 1 X=0.000D+00 Y= 9.670798891989D-03 DE= 0.00D+00 F= -2.14D-05
     ILin= 2 X=1.000D+00 Y= 9.639130299661D-03 DE=-3.17D-05 F= -4.08D-05
     ILin= 3 X=1.800D+00 Y= 9.603536516352D-03 DE=-6.73D-05 F= -4.57D-05
     ILin= 4 X=3.400D+00 Y= 9.560703420959D-03 DE=-1.10D-04 F=  1.07D-05
     ILin= 5 X=6.200D+00 Y= 1.011835503493D-02 DE= 4.48D-04 F=  4.85D-04
     An  expanding polynomial of degree  5 produced  3.2501
     Minimum is close to point  4 DX= -1.50D-01 DF= -7.53D-07 DXR=  4.61D-02 DFR=  6.84D-03 which will be used.
 Iteration   8 EE= 0.956070342095927E-02 Delta-E=       -0.000110095471 Grad=3.124D-02 Max rot=    0.5287 deg.
 Gradient too large for Newton-Raphson -- use scaled steepest descent instead.
 Alpha Gap=     0.335 HL deriv= 1.31D-02
  Beta Gap=     0.308 HL deriv= 2.25D-02
     ILin= 1 X=0.000D+00 Y= 9.560703420959D-03 DE= 0.00D+00 F= -2.57D-03
     ILin= 2 X=1.400D+00 Y= 7.377228741916D-03 DE=-2.18D-03 F= -5.36D-04
     ILin= 3 X=2.900D+00 Y= 8.254489269348D-03 DE=-1.31D-03 F=  1.72D-03
     An  expanding polynomial of degree  3 produced  1.7546
 Iteration   9 EE= 0.728019982500427E-02 Delta-E=       -0.002280503596 Grad=1.895D-02 Max rot=    0.4164 deg.
 Gradient too large for Newton-Raphson -- use scaled steepest descent instead.
 Alpha Gap=     0.347 HL deriv= 2.10D-02
  Beta Gap=     0.310 HL deriv= 1.36D-02
     ILin= 1 X=0.000D+00 Y= 7.280199825004D-03 DE= 0.00D+00 F= -1.00D-03
     ILin= 2 X=1.600D+00 Y= 6.238937888838D-03 DE=-1.04D-03 F= -2.97D-04
     ILin= 3 X=3.200D+00 Y= 6.339504078539D-03 DE=-9.41D-04 F=  4.25D-04
     An  expanding polynomial of degree  3 produced  2.2591
 Iteration  10 EE= 0.614049491991864E-02 Delta-E=       -0.001139704905 Grad=1.865D-02 Max rot=    0.4554 deg.
 Gradient too large for Newton-Raphson -- use scaled steepest descent instead.
 Alpha Gap=     0.352 HL deriv= 1.01D-02
  Beta Gap=     0.312 HL deriv= 2.55D-02
     ILin= 1 X=0.000D+00 Y= 6.140494919919D-03 DE= 0.00D+00 F= -9.76D-04
     ILin= 2 X=2.000D+00 Y= 5.199103086966D-03 DE=-9.41D-04 F=  4.13D-05
     ILin= 3 X=4.000D+00 Y= 6.331727087854D-03 DE= 1.91D-04 F=  1.10D-03
     An  expanding polynomial of degree  3 produced  1.9078
     Minimum is close to point  2 DX= -9.22D-02 DF= -2.20D-06 DXR=  4.83D-02 DFR=  2.34D-03 which will be used.
 Iteration  11 EE= 0.519910308696581E-02 Delta-E=       -0.000941391833 Grad=1.715D-02 Max rot=    0.3768 deg.
 Gradient too large for Newton-Raphson -- use scaled steepest descent instead.
 Alpha Gap=     0.367 HL deriv= 1.79D-02
  Beta Gap=     0.315 HL deriv= 1.22D-02
     ILin= 1 X=0.000D+00 Y= 5.199103086966D-03 DE= 0.00D+00 F= -8.16D-04
     ILin= 2 X=2.100D+00 Y= 4.428329371422D-03 DE=-7.71D-04 F=  8.38D-05
     ILin= 3 X=4.200D+00 Y= 5.556963599531D-03 DE= 3.58D-04 F=  9.93D-04
     An  expanding polynomial of degree  3 produced  1.9022
 Iteration  12 EE= 0.442017982828702E-02 Delta-E=       -0.000778923259 Grad=1.341D-02 Max rot=    0.4215 deg.
 Gradient too large for Newton-Raphson -- use scaled steepest descent instead.
 Alpha Gap=     0.368 HL deriv= 6.25D-03
  Beta Gap=     0.318 HL deriv= 2.31D-02
     ILin= 1 X=0.000D+00 Y= 4.420179828287D-03 DE= 0.00D+00 F= -6.10D-04
     ILin= 2 X=1.900D+00 Y= 3.834203815245D-03 DE=-5.86D-04 F= -4.15D-06
     ILin= 3 X=3.800D+00 Y= 4.412291349865D-03 DE=-7.89D-06 F=  6.14D-04
     An  expanding polynomial of degree  3 produced  1.9064
     Minimum is close to point  2 DX=  6.44D-03 DF= -6.68D-09 DXR=  3.38D-03 DFR=  1.14D-05 which will be used.
 Iteration  13 EE= 0.383420381524502E-02 Delta-E=       -0.000585976013 Grad=1.214D-02 Max rot=    0.2707 deg.
 Gradient too large for Newton-Raphson -- use scaled steepest descent instead.
 Alpha Gap=     0.382 HL deriv= 1.24D-02
  Beta Gap=     0.320 HL deriv= 8.70D-03
     ILin= 1 X=0.000D+00 Y= 3.834203815245D-03 DE= 0.00D+00 F= -4.41D-04
     ILin= 2 X=1.900D+00 Y= 3.437746306417D-03 DE=-3.96D-04 F=  2.36D-05
     ILin= 3 X=3.800D+00 Y= 3.924458778556D-03 DE= 9.03D-05 F=  4.89D-04
     An  expanding polynomial of degree  3 produced  1.8029
     Minimum is close to point  2 DX= -9.71D-02 DF= -1.15D-06 DXR=  5.38D-02 DFR=  2.91D-03 which will be used.
 Iteration  14 EE= 0.343774630641747E-02 Delta-E=       -0.000396457509 Grad=9.358D-03 Max rot=    0.3081 deg.
 QCNR:  CnvC1=3.85D-09 CnvC2=3.85D-08
 LinEq1:  Iter=  0 NonCon=     1 RMS=4.97D-04 Max=1.67D-02 NDo=     1
 LinEq1:  Iter=  1 NonCon=     1 RMS=1.90D-04 Max=3.46D-03 NDo=     1
 LinEq1:  Iter=  2 NonCon=     1 RMS=1.02D-05 Max=6.60D-05 NDo=     1
 LinEq1:  Iter=  3 NonCon=     1 RMS=2.13D-06 Max=4.83D-05 NDo=     1
 LinEq1:  Iter=  4 NonCon=     1 RMS=3.95D-07 Max=4.51D-06 NDo=     1
 LinEq1:  Iter=  5 NonCon=     1 RMS=9.90D-08 Max=1.69D-06 NDo=     1
 LinEq1:  Iter=  6 NonCon=     1 RMS=2.55D-08 Max=2.39D-07 NDo=     1
 LinEq1:  Iter=  7 NonCon=     0 RMS=3.18D-09 Max=2.94D-08 NDo=     1
 Linear equations converged to 3.847D-09 3.847D-08 after     7 iterations.
 Angle between quadratic step and gradient=  53.63 degrees.
     ILin= 1 X=0.000D+00 Y= 3.437746306417D-03 DE= 0.00D+00 F= -1.35D-03
     ILin= 2 X=1.000D+00 Y= 2.889788472714D-03 DE=-5.48D-04 F=  3.78D-04
     Accept linear search using points  1 and  2.
     An  expanding polynomial of degree  2 produced  0.8149
 Iteration  15 EE= 0.285509144458729E-02 Delta-E=       -0.000582654862 Grad=1.734D-03 Max rot=    0.0376 deg.
 QCNR:  CnvC1=3.85D-09 CnvC2=3.85D-08
 LinEq1:  Iter=  0 NonCon=     1 RMS=7.60D-05 Max=1.71D-03 NDo=     1
 LinEq1:  Iter=  1 NonCon=     1 RMS=1.69D-05 Max=3.60D-04 NDo=     1
 LinEq1:  Iter=  2 NonCon=     1 RMS=2.60D-06 Max=4.32D-05 NDo=     1
 LinEq1:  Iter=  3 NonCon=     1 RMS=5.26D-07 Max=8.64D-06 NDo=     1
 LinEq1:  Iter=  4 NonCon=     1 RMS=1.40D-07 Max=2.00D-06 NDo=     1
 LinEq1:  Iter=  5 NonCon=     1 RMS=2.62D-08 Max=3.64D-07 NDo=     1
 LinEq1:  Iter=  6 NonCon=     1 RMS=5.09D-09 Max=5.84D-08 NDo=     1
 LinEq1:  Iter=  7 NonCon=     0 RMS=1.28D-09 Max=1.89D-08 NDo=     1
 Linear equations converged to 3.847D-09 3.847D-08 after     7 iterations.
 Angle between quadratic step and gradient=  42.50 degrees.
     ILin= 1 X=0.000D+00 Y= 2.855091444587D-03 DE= 0.00D+00 F= -1.21D-05
     ILin= 2 X=1.000D+00 Y= 2.849057915682D-03 DE=-6.03D-06 F=  3.03D-08
     Accept linear search using points  1 and  2.
     An  expanding polynomial of degree  2 produced  0.9975
     Minimum is close to point  2 DX= -2.50D-03 DF= -3.78D-11 DXR=  2.50D-03 DFR=  6.27D-06 which will be used.
 Iteration  16 EE= 0.284905791568235E-02 Delta-E=       -0.000006033529 Grad=6.029D-06 Max rot=    0.0001 deg.
 QCNR:  CnvC1=6.03D-11 CnvC2=6.03D-10
 LinEq1:  Iter=  0 NonCon=     1 RMS=2.84D-07 Max=5.62D-06 NDo=     1
 LinEq1:  Iter=  1 NonCon=     1 RMS=6.86D-08 Max=8.83D-07 NDo=     1
 LinEq1:  Iter=  2 NonCon=     1 RMS=1.67D-08 Max=2.46D-07 NDo=     1
 LinEq1:  Iter=  3 NonCon=     1 RMS=2.98D-09 Max=3.27D-08 NDo=     1
 LinEq1:  Iter=  4 NonCon=     1 RMS=7.44D-10 Max=7.41D-09 NDo=     1
 LinEq1:  Iter=  5 NonCon=     1 RMS=1.24D-10 Max=1.52D-09 NDo=     1
 LinEq1:  Iter=  6 NonCon=     0 RMS=2.38D-11 Max=3.49D-10 NDo=     1
 Linear equations converged to 6.029D-11 6.029D-10 after     6 iterations.
 Angle between quadratic step and gradient=  48.88 degrees.
     ILin= 1 X=0.000D+00 Y= 2.849057915682D-03 DE= 0.00D+00 F= -2.05D-10
     ILin= 2 X=1.000D+00 Y= 2.849057813137D-03 DE=-1.03D-10
 Iteration  17 EE= 0.284905781313682E-02 Delta-E=       -0.000000000103 Grad=6.032D-08 Max rot=    0.0000 deg.
 Rotation gradient small -- convergence achieved.
 SCF Done:  E(UPM6) =  0.284905781314E-02 a.u. after   17 cycles
            Convg  =    0.6032D-07                    69 Fock formations.
              S**2 =  1.3105                  -V/T =  1.0001
 <Sx>= 0.0000 <Sy>= 0.0000 <Sz>= 0.5000 <S**2>= 1.3105 S= 0.7492
 <L.S>= 0.000000000000E+00
 Annihilation of the first spin contaminant:
 S**2 before annihilation     1.3105,   after     0.7709
 Leave Link  508 at Wed Feb 17 08:26:28 2021, MaxMem=    33554432 cpu:         0.1
 (Enter /cm/shared/apps/Gaussian09/g09/l801.exe)
 Range of M.O.s used for correlation:     1    55
 NBasis=    55 NAE=    32 NBE=    31 NFC=     0 NFV=     0
 NROrb=     55 NOA=    32 NOB=    31 NVA=    23 NVB=    24
 Leave Link  801 at Wed Feb 17 08:26:28 2021, MaxMem=    33554432 cpu:         0.0
 (Enter /cm/shared/apps/Gaussian09/g09/l1101.exe)
 Using compressed storage, NAtomX=    22.
 Will process     23 centers per pass.
 Leave Link 1101 at Wed Feb 17 08:26:28 2021, MaxMem=    33554432 cpu:         0.1
 (Enter /cm/shared/apps/Gaussian09/g09/l1102.exe)
 Symmetrizing basis deriv contribution to polar:
 IMax=3 JMax=2 DiffMx= 0.00D+00
 Leave Link 1102 at Wed Feb 17 08:26:28 2021, MaxMem=    33554432 cpu:         0.0
 (Enter /cm/shared/apps/Gaussian09/g09/l1110.exe)
 Forming Gx(P) for the SCF density, NAtomX=    22.
 Integral derivatives from FoFJK, PRISM(SPDF).
 Do as many integral derivatives as possible in FoFJK.
 G2DrvN: MDV=      33495261.
 G2DrvN: will do    23 centers at a time, making    1 passes.
 Calling FoFCou, ICntrl=  3107 FMM=F I1Cent=   0 AccDes= 0.00D+00.
 FoFJK:  IHMeth=40 ICntrl=    3107 DoSepK=F KAlg= 0 I1Cent=   0 FoldK=F
 IRaf=         0 NMat=   1 IRICut=       1 DoRegI=T DoRafI=F ISym2E= 0.
 FoFCou: FMM=F IPFlag=           0 FMFlag=      100000 FMFlg1=           0
         NFxFlg=           0 DoJE=F BraDBF=F KetDBF=F FulRan=T
         wScrn=  0.000000 ICntrl=    3107 IOpCl=  1 I1Cent=           0 NGrid=           0
         NMat0=    1 NMatS0=      1 NMatT0=    0 NMatD0=    1 NMtDS0=    0 NMtDT0=    0
 Symmetry not used in FoFCou.
 End of G2Drv F.D. properties file   721 does not exist.
 End of G2Drv F.D. properties file   722 does not exist.
 End of G2Drv F.D. properties file   788 does not exist.
 Leave Link 1110 at Wed Feb 17 08:26:28 2021, MaxMem=    33554432 cpu:         0.0
 (Enter /cm/shared/apps/Gaussian09/g09/l1002.exe)
 Minotr:  UHF open shell wavefunction.
          IDoAtm=1111111111111111111111
          Direct CPHF calculation.
          Differentiating once with respect to electric field.
                with respect to dipole field.
          Differentiating once with respect to nuclear coordinates.
          Electric field/nuclear overlap derivatives assumed to be zero.
          Requested convergence is 1.0D-08 RMS, and 1.0D-07 maximum.
          NewPWx=T KeepS1=F KeepF1=F KeepIn=T MapXYZ=F SortEE=F KeepMc=T.
          MDV=      33495207 using IRadAn=       2.
 Keep J ints in memory in canonical form, NReq=889842.
 FoFCou: FMM=F IPFlag=           0 FMFlag=           0 FMFlg1=           0
         NFxFlg=           0 DoJE=F BraDBF=F KetDBF=F FulRan=T
         wScrn=  0.000000 ICntrl=     600 IOpCl=  2 I1Cent=           0 NGrid=           0
         NMat0=    1 NMatS0=    121 NMatT0=    0 NMatD0=    1 NMtDS0=    0 NMtDT0=    0
 Symmetry not used in FoFCou.
          Solving linear equations separately, MaxMat=       0.
          There are    69 degrees of freedom in the 1st order CPHF.  IDoFFX=5 NUNeed=    69.
 LinEq1:  Iter=  0 NonCon=    69 RMS=1.92D-01 Max=3.81D+00 NDo=    69
 AX will form    69 AO Fock derivatives at one time.
 LinEq1:  Iter=  1 NonCon=    69 RMS=3.68D-02 Max=6.56D-01 NDo=    69
 LinEq1:  Iter=  2 NonCon=    69 RMS=1.04D-02 Max=2.28D-01 NDo=    69
 LinEq1:  Iter=  3 NonCon=    69 RMS=1.88D-03 Max=2.31D-02 NDo=    69
 LinEq1:  Iter=  4 NonCon=    69 RMS=3.15D-04 Max=5.52D-03 NDo=    69
 LinEq1:  Iter=  5 NonCon=    69 RMS=7.00D-05 Max=7.07D-04 NDo=    69
 LinEq1:  Iter=  6 NonCon=    69 RMS=1.64D-05 Max=2.66D-04 NDo=    69
 LinEq1:  Iter=  7 NonCon=    62 RMS=3.85D-06 Max=4.88D-05 NDo=    69
 LinEq1:  Iter=  8 NonCon=    26 RMS=8.57D-07 Max=1.01D-05 NDo=    69
 LinEq1:  Iter=  9 NonCon=     7 RMS=1.97D-07 Max=2.21D-06 NDo=    69
 LinEq1:  Iter= 10 NonCon=     3 RMS=3.25D-08 Max=2.47D-07 NDo=    69
 LinEq1:  Iter= 11 NonCon=     0 RMS=5.48D-09 Max=7.59D-08 NDo=    69
 Linear equations converged to 1.000D-08 1.000D-07 after    11 iterations.
 FullF1:  Do perturbations    1 to     3.
 Isotropic polarizability for W=    0.000000       71.49 Bohr**3.
 End of Minotr F.D. properties file   721 does not exist.
 End of Minotr F.D. properties file   722 does not exist.
 End of Minotr F.D. properties file   788 does not exist.
 Leave Link 1002 at Wed Feb 17 08:26:29 2021, MaxMem=    33554432 cpu:         0.5
 (Enter /cm/shared/apps/Gaussian09/g09/l601.exe)
 Copying SCF densities to generalized density rwf, IOpCl= 1 IROHF=0.

 **********************************************************************

            Population analysis using the SCF density.

 **********************************************************************

 Alpha  occ. eigenvalues --   -1.24932  -1.24226  -1.18560  -1.09121  -1.05417
 Alpha  occ. eigenvalues --   -0.96818  -0.87988  -0.86980  -0.80401  -0.74119
 Alpha  occ. eigenvalues --   -0.73509  -0.70214  -0.64307  -0.63682  -0.61963
 Alpha  occ. eigenvalues --   -0.59791  -0.57858  -0.57637  -0.55760  -0.53945
 Alpha  occ. eigenvalues --   -0.53684  -0.52776  -0.51796  -0.50599  -0.48292
 Alpha  occ. eigenvalues --   -0.46948  -0.45918  -0.43948  -0.39104  -0.38102
 Alpha  occ. eigenvalues --   -0.37788  -0.36467
 Alpha virt. eigenvalues --   -0.00079   0.00939   0.02224   0.04361   0.04915
 Alpha virt. eigenvalues --    0.09920   0.11744   0.12757   0.14514   0.14733
 Alpha virt. eigenvalues --    0.15357   0.15965   0.17007   0.18257   0.18897
 Alpha virt. eigenvalues --    0.18960   0.19687   0.20651   0.20830   0.21834
 Alpha virt. eigenvalues --    0.23383   0.23532   0.24754
  Beta  occ. eigenvalues --   -1.24261  -1.20883  -1.18565  -1.07689  -1.02105
  Beta  occ. eigenvalues --   -0.95557  -0.87344  -0.85493  -0.80322  -0.74103
  Beta  occ. eigenvalues --   -0.73235  -0.68495  -0.64135  -0.62523  -0.59612
  Beta  occ. eigenvalues --   -0.58522  -0.57667  -0.57480  -0.55527  -0.53857
  Beta  occ. eigenvalues --   -0.53455  -0.51528  -0.50939  -0.49976  -0.48187
  Beta  occ. eigenvalues --   -0.46932  -0.46024  -0.43829  -0.38246  -0.35202
  Beta  occ. eigenvalues --   -0.33463
  Beta virt. eigenvalues --   -0.00671  -0.00075   0.02074   0.04216   0.04462
  Beta virt. eigenvalues --    0.05581   0.09913   0.11692   0.12364   0.14070
  Beta virt. eigenvalues --    0.14754   0.15631   0.15978   0.16995   0.18164
  Beta virt. eigenvalues --    0.18804   0.18950   0.19658   0.20376   0.20744
  Beta virt. eigenvalues --    0.21663   0.24254   0.24394   0.25694
          Condensed to atoms (all electrons):
               1          2          3          4          5          6
     1  O    6.461755   0.000000   0.000000   0.000000   0.000000   0.000000
     2  C    0.000000   3.585714   0.000000   0.000000   0.000000   0.000000
     3  C    0.000000   0.000000   4.449127   0.000000   0.000000   0.000000
     4  C    0.000000   0.000000   0.000000   4.192892   0.000000   0.000000
     5  C    0.000000   0.000000   0.000000   0.000000   4.293654   0.000000
     6  C    0.000000   0.000000   0.000000   0.000000   0.000000   4.119972
     7  H    0.000000   0.000000   0.000000   0.000000   0.000000   0.000000
     8  C    0.000000   0.000000   0.000000   0.000000   0.000000   0.000000
     9  O    0.000000   0.000000   0.000000   0.000000   0.000000   0.000000
    10  C    0.000000   0.000000   0.000000   0.000000   0.000000   0.000000
    11  H    0.000000   0.000000   0.000000   0.000000   0.000000   0.000000
    12  H    0.000000   0.000000   0.000000   0.000000   0.000000   0.000000
    13  H    0.000000   0.000000   0.000000   0.000000   0.000000   0.000000
    14  H    0.000000   0.000000   0.000000   0.000000   0.000000   0.000000
    15  H    0.000000   0.000000   0.000000   0.000000   0.000000   0.000000
    16  H    0.000000   0.000000   0.000000   0.000000   0.000000   0.000000
    17  H    0.000000   0.000000   0.000000   0.000000   0.000000   0.000000
    18  H    0.000000   0.000000   0.000000   0.000000   0.000000   0.000000
    19  H    0.000000   0.000000   0.000000   0.000000   0.000000   0.000000
    20  H    0.000000   0.000000   0.000000   0.000000   0.000000   0.000000
    21  O    0.000000   0.000000   0.000000   0.000000   0.000000   0.000000
    22  O    0.000000   0.000000   0.000000   0.000000   0.000000   0.000000
               7          8          9         10         11         12
     1  O    0.000000   0.000000   0.000000   0.000000   0.000000   0.000000
     2  C    0.000000   0.000000   0.000000   0.000000   0.000000   0.000000
     3  C    0.000000   0.000000   0.000000   0.000000   0.000000   0.000000
     4  C    0.000000   0.000000   0.000000   0.000000   0.000000   0.000000
     5  C    0.000000   0.000000   0.000000   0.000000   0.000000   0.000000
     6  C    0.000000   0.000000   0.000000   0.000000   0.000000   0.000000
     7  H    0.829807   0.000000   0.000000   0.000000   0.000000   0.000000
     8  C    0.000000   3.648892   0.000000   0.000000   0.000000   0.000000
     9  O    0.000000   0.000000   6.354825   0.000000   0.000000   0.000000
    10  C    0.000000   0.000000   0.000000   4.461275   0.000000   0.000000
    11  H    0.000000   0.000000   0.000000   0.000000   0.907043   0.000000
    12  H    0.000000   0.000000   0.000000   0.000000   0.000000   0.830782
    13  H    0.000000   0.000000   0.000000   0.000000   0.000000   0.000000
    14  H    0.000000   0.000000   0.000000   0.000000   0.000000   0.000000
    15  H    0.000000   0.000000   0.000000   0.000000   0.000000   0.000000
    16  H    0.000000   0.000000   0.000000   0.000000   0.000000   0.000000
    17  H    0.000000   0.000000   0.000000   0.000000   0.000000   0.000000
    18  H    0.000000   0.000000   0.000000   0.000000   0.000000   0.000000
    19  H    0.000000   0.000000   0.000000   0.000000   0.000000   0.000000
    20  H    0.000000   0.000000   0.000000   0.000000   0.000000   0.000000
    21  O    0.000000   0.000000   0.000000   0.000000   0.000000   0.000000
    22  O    0.000000   0.000000   0.000000   0.000000   0.000000   0.000000
              13         14         15         16         17         18
     1  O    0.000000   0.000000   0.000000   0.000000   0.000000   0.000000
     2  C    0.000000   0.000000   0.000000   0.000000   0.000000   0.000000
     3  C    0.000000   0.000000   0.000000   0.000000   0.000000   0.000000
     4  C    0.000000   0.000000   0.000000   0.000000   0.000000   0.000000
     5  C    0.000000   0.000000   0.000000   0.000000   0.000000   0.000000
     6  C    0.000000   0.000000   0.000000   0.000000   0.000000   0.000000
     7  H    0.000000   0.000000   0.000000   0.000000   0.000000   0.000000
     8  C    0.000000   0.000000   0.000000   0.000000   0.000000   0.000000
     9  O    0.000000   0.000000   0.000000   0.000000   0.000000   0.000000
    10  C    0.000000   0.000000   0.000000   0.000000   0.000000   0.000000
    11  H    0.000000   0.000000   0.000000   0.000000   0.000000   0.000000
    12  H    0.000000   0.000000   0.000000   0.000000   0.000000   0.000000
    13  H    0.822099   0.000000   0.000000   0.000000   0.000000   0.000000
    14  H    0.000000   0.863274   0.000000   0.000000   0.000000   0.000000
    15  H    0.000000   0.000000   0.863040   0.000000   0.000000   0.000000
    16  H    0.000000   0.000000   0.000000   0.803881   0.000000   0.000000
    17  H    0.000000   0.000000   0.000000   0.000000   0.846384   0.000000
    18  H    0.000000   0.000000   0.000000   0.000000   0.000000   0.854507
    19  H    0.000000   0.000000   0.000000   0.000000   0.000000   0.000000
    20  H    0.000000   0.000000   0.000000   0.000000   0.000000   0.000000
    21  O    0.000000   0.000000   0.000000   0.000000   0.000000   0.000000
    22  O    0.000000   0.000000   0.000000   0.000000   0.000000   0.000000
              19         20         21         22
     1  O    0.000000   0.000000   0.000000   0.000000
     2  C    0.000000   0.000000   0.000000   0.000000
     3  C    0.000000   0.000000   0.000000   0.000000
     4  C    0.000000   0.000000   0.000000   0.000000
     5  C    0.000000   0.000000   0.000000   0.000000
     6  C    0.000000   0.000000   0.000000   0.000000
     7  H    0.000000   0.000000   0.000000   0.000000
     8  C    0.000000   0.000000   0.000000   0.000000
     9  O    0.000000   0.000000   0.000000   0.000000
    10  C    0.000000   0.000000   0.000000   0.000000
    11  H    0.000000   0.000000   0.000000   0.000000
    12  H    0.000000   0.000000   0.000000   0.000000
    13  H    0.000000   0.000000   0.000000   0.000000
    14  H    0.000000   0.000000   0.000000   0.000000
    15  H    0.000000   0.000000   0.000000   0.000000
    16  H    0.000000   0.000000   0.000000   0.000000
    17  H    0.000000   0.000000   0.000000   0.000000
    18  H    0.000000   0.000000   0.000000   0.000000
    19  H    0.855442   0.000000   0.000000   0.000000
    20  H    0.000000   0.825512   0.000000   0.000000
    21  O    0.000000   0.000000   6.367955   0.000000
    22  O    0.000000   0.000000   0.000000   5.762169
          Atomic-Atomic Spin Densities.
               1          2          3          4          5          6
     1  O   -0.000174   0.000000   0.000000   0.000000   0.000000   0.000000
     2  C    0.000000  -0.000154   0.000000   0.000000   0.000000   0.000000
     3  C    0.000000   0.000000   0.001158   0.000000   0.000000   0.000000
     4  C    0.000000   0.000000   0.000000  -0.024808   0.000000   0.000000
     5  C    0.000000   0.000000   0.000000   0.000000   0.034077   0.000000
     6  C    0.000000   0.000000   0.000000   0.000000   0.000000  -0.766094
     7  H    0.000000   0.000000   0.000000   0.000000   0.000000   0.000000
     8  C    0.000000   0.000000   0.000000   0.000000   0.000000   0.000000
     9  O    0.000000   0.000000   0.000000   0.000000   0.000000   0.000000
    10  C    0.000000   0.000000   0.000000   0.000000   0.000000   0.000000
    11  H    0.000000   0.000000   0.000000   0.000000   0.000000   0.000000
    12  H    0.000000   0.000000   0.000000   0.000000   0.000000   0.000000
    13  H    0.000000   0.000000   0.000000   0.000000   0.000000   0.000000
    14  H    0.000000   0.000000   0.000000   0.000000   0.000000   0.000000
    15  H    0.000000   0.000000   0.000000   0.000000   0.000000   0.000000
    16  H    0.000000   0.000000   0.000000   0.000000   0.000000   0.000000
    17  H    0.000000   0.000000   0.000000   0.000000   0.000000   0.000000
    18  H    0.000000   0.000000   0.000000   0.000000   0.000000   0.000000
    19  H    0.000000   0.000000   0.000000   0.000000   0.000000   0.000000
    20  H    0.000000   0.000000   0.000000   0.000000   0.000000   0.000000
    21  O    0.000000   0.000000   0.000000   0.000000   0.000000   0.000000
    22  O    0.000000   0.000000   0.000000   0.000000   0.000000   0.000000
               7          8          9         10         11         12
     1  O    0.000000   0.000000   0.000000   0.000000   0.000000   0.000000
     2  C    0.000000   0.000000   0.000000   0.000000   0.000000   0.000000
     3  C    0.000000   0.000000   0.000000   0.000000   0.000000   0.000000
     4  C    0.000000   0.000000   0.000000   0.000000   0.000000   0.000000
     5  C    0.000000   0.000000   0.000000   0.000000   0.000000   0.000000
     6  C    0.000000   0.000000   0.000000   0.000000   0.000000   0.000000
     7  H    0.021762   0.000000   0.000000   0.000000   0.000000   0.000000
     8  C    0.000000  -0.005364   0.000000   0.000000   0.000000   0.000000
     9  O    0.000000   0.000000   0.005103   0.000000   0.000000   0.000000
    10  C    0.000000   0.000000   0.000000   1.099163   0.000000   0.000000
    11  H    0.000000   0.000000   0.000000   0.000000  -0.000026   0.000000
    12  H    0.000000   0.000000   0.000000   0.000000   0.000000  -0.000227
    13  H    0.000000   0.000000   0.000000   0.000000   0.000000   0.000000
    14  H    0.000000   0.000000   0.000000   0.000000   0.000000   0.000000
    15  H    0.000000   0.000000   0.000000   0.000000   0.000000   0.000000
    16  H    0.000000   0.000000   0.000000   0.000000   0.000000   0.000000
    17  H    0.000000   0.000000   0.000000   0.000000   0.000000   0.000000
    18  H    0.000000   0.000000   0.000000   0.000000   0.000000   0.000000
    19  H    0.000000   0.000000   0.000000   0.000000   0.000000   0.000000
    20  H    0.000000   0.000000   0.000000   0.000000   0.000000   0.000000
    21  O    0.000000   0.000000   0.000000   0.000000   0.000000   0.000000
    22  O    0.000000   0.000000   0.000000   0.000000   0.000000   0.000000
              13         14         15         16         17         18
     1  O    0.000000   0.000000   0.000000   0.000000   0.000000   0.000000
     2  C    0.000000   0.000000   0.000000   0.000000   0.000000   0.000000
     3  C    0.000000   0.000000   0.000000   0.000000   0.000000   0.000000
     4  C    0.000000   0.000000   0.000000   0.000000   0.000000   0.000000
     5  C    0.000000   0.000000   0.000000   0.000000   0.000000   0.000000
     6  C    0.000000   0.000000   0.000000   0.000000   0.000000   0.000000
     7  H    0.000000   0.000000   0.000000   0.000000   0.000000   0.000000
     8  C    0.000000   0.000000   0.000000   0.000000   0.000000   0.000000
     9  O    0.000000   0.000000   0.000000   0.000000   0.000000   0.000000
    10  C    0.000000   0.000000   0.000000   0.000000   0.000000   0.000000
    11  H    0.000000   0.000000   0.000000   0.000000   0.000000   0.000000
    12  H    0.000000   0.000000   0.000000   0.000000   0.000000   0.000000
    13  H   -0.000040   0.000000   0.000000   0.000000   0.000000   0.000000
    14  H    0.000000   0.000919   0.000000   0.000000   0.000000   0.000000
    15  H    0.000000   0.000000   0.000931   0.000000   0.000000   0.000000
    16  H    0.000000   0.000000   0.000000  -0.018240   0.000000   0.000000
    17  H    0.000000   0.000000   0.000000   0.000000  -0.002021   0.000000
    18  H    0.000000   0.000000   0.000000   0.000000   0.000000  -0.034478
    19  H    0.000000   0.000000   0.000000   0.000000   0.000000   0.000000
    20  H    0.000000   0.000000   0.000000   0.000000   0.000000   0.000000
    21  O    0.000000   0.000000   0.000000   0.000000   0.000000   0.000000
    22  O    0.000000   0.000000   0.000000   0.000000   0.000000   0.000000
              19         20         21         22
     1  O    0.000000   0.000000   0.000000   0.000000
     2  C    0.000000   0.000000   0.000000   0.000000
     3  C    0.000000   0.000000   0.000000   0.000000
     4  C    0.000000   0.000000   0.000000   0.000000
     5  C    0.000000   0.000000   0.000000   0.000000
     6  C    0.000000   0.000000   0.000000   0.000000
     7  H    0.000000   0.000000   0.000000   0.000000
     8  C    0.000000   0.000000   0.000000   0.000000
     9  O    0.000000   0.000000   0.000000   0.000000
    10  C    0.000000   0.000000   0.000000   0.000000
    11  H    0.000000   0.000000   0.000000   0.000000
    12  H    0.000000   0.000000   0.000000   0.000000
    13  H    0.000000   0.000000   0.000000   0.000000
    14  H    0.000000   0.000000   0.000000   0.000000
    15  H    0.000000   0.000000   0.000000   0.000000
    16  H    0.000000   0.000000   0.000000   0.000000
    17  H    0.000000   0.000000   0.000000   0.000000
    18  H    0.000000   0.000000   0.000000   0.000000
    19  H   -0.034502   0.000000   0.000000   0.000000
    20  H    0.000000  -0.035680   0.000000   0.000000
    21  O    0.000000   0.000000   0.479041   0.000000
    22  O    0.000000   0.000000   0.000000   0.279656
 Mulliken charges and spin densities:
               1          2
     1  O   -0.461755  -0.000174
     2  C    0.414286  -0.000154
     3  C   -0.449127   0.001158
     4  C   -0.192892  -0.024808
     5  C   -0.293654   0.034077
     6  C   -0.119972  -0.766094
     7  H    0.170193   0.021762
     8  C    0.351108  -0.005364
     9  O   -0.354825   0.005103
    10  C   -0.461275   1.099163
    11  H    0.092957  -0.000026
    12  H    0.169218  -0.000227
    13  H    0.177901  -0.000040
    14  H    0.136726   0.000919
    15  H    0.136960   0.000931
    16  H    0.196119  -0.018240
    17  H    0.153616  -0.002021
    18  H    0.145493  -0.034478
    19  H    0.144558  -0.034502
    20  H    0.174488  -0.035680
    21  O   -0.367955   0.479041
    22  O    0.237831   0.279656
 Sum of Mulliken charges =   0.00000   1.00000
 Mulliken charges and spin densities with hydrogens summed into heavy atoms:
               1          2
     1  O   -0.461755  -0.000174
     2  C    0.507243  -0.000180
     3  C   -0.102008   0.000891
     4  C    0.080794  -0.022958
     5  C    0.056081   0.013816
     6  C    0.050221  -0.744332
     8  C    0.351108  -0.005364
     9  O   -0.354825   0.005103
    10  C    0.003264   0.994502
    21  O   -0.367955   0.479041
    22  O    0.237831   0.279656
 APT charges:
               1
     1  O   -0.698789
     2  C    0.880927
     3  C   -0.685013
     4  C   -0.134552
     5  C   -0.377494
     6  C   -0.394258
     7  H    0.144980
     8  C    0.587082
     9  O   -0.557374
    10  C   -0.585155
    11  H    0.019160
    12  H    0.188972
    13  H    0.196837
    14  H    0.131697
    15  H    0.126432
    16  H    0.223367
    17  H    0.164816
    18  H    0.180712
    19  H    0.180906
    20  H    0.224076
    21  O   -0.529301
    22  O    0.711937
 Sum of APT charges =  -0.00004
 APT charges with hydrogens summed into heavy atoms:
               1
     1  O   -0.698789
     2  C    0.900087
     3  C   -0.299205
     4  C    0.123577
     5  C    0.010688
     6  C   -0.249278
     8  C    0.587082
     9  O   -0.557374
    10  C    0.000538
    21  O   -0.529301
    22  O    0.711937
 Charge=              0.0000 electrons
 Dipole moment (field-independent basis, Debye):
    X=              0.1206    Y=              5.0338    Z=              0.5072  Tot=              5.0608
 N-N= 3.781781716347D+02 E-N=-6.765592977587D+02  KE=-3.701330242765D+01
  Exact polarizability:  59.040   6.395  88.581  -3.262  19.612  66.851
 Approx polarizability:  41.994   6.062  56.037  -3.285   7.502  41.835
 Leave Link  601 at Wed Feb 17 08:26:29 2021, MaxMem=    33554432 cpu:         0.0
 (Enter /cm/shared/apps/Gaussian09/g09/l701.exe)
 Compute integral second derivatives.
 ... and contract with generalized density number  0.
 Leave Link  701 at Wed Feb 17 08:26:29 2021, MaxMem=    33554432 cpu:         0.1
 (Enter /cm/shared/apps/Gaussian09/g09/l702.exe)
 L702 exits ... SP integral derivatives will be done elsewhere.
 Leave Link  702 at Wed Feb 17 08:26:29 2021, MaxMem=    33554432 cpu:         0.0
 (Enter /cm/shared/apps/Gaussian09/g09/l703.exe)
 Compute integral second derivatives, UseDBF=F ICtDFT=           0.
 Integral derivatives from FoFJK, PRISM(SPDF).
 Calling FoFJK, ICntrl=    100127 FMM=F ISym2X=0 I1Cent= 0 IOpClX= 1 NMat=1 NMatS=1 NMatT=0.
 FoFJK:  IHMeth=40 ICntrl=  100127 DoSepK=F KAlg= 0 I1Cent=   0 FoldK=F
 IRaf=         0 NMat=   1 IRICut=       1 DoRegI=T DoRafI=F ISym2E= 0.
 FoFCou: FMM=F IPFlag=           0 FMFlag=      100000 FMFlg1=         800
         NFxFlg=           0 DoJE=F BraDBF=F KetDBF=F FulRan=T
         wScrn=  0.000000 ICntrl=  100127 IOpCl=  1 I1Cent=           0 NGrid=           0
         NMat0=    1 NMatS0=      1 NMatT0=    0 NMatD0=    1 NMtDS0=    0 NMtDT0=    0
 Symmetry not used in FoFCou.
 Leave Link  703 at Wed Feb 17 08:26:29 2021, MaxMem=    33554432 cpu:         0.1
 (Enter /cm/shared/apps/Gaussian09/g09/l716.exe)
 Dipole        = 4.74443399D-02 1.98046517D+00 1.99532435D-01
 Polarizability= 5.90403026D+01 6.39503267D+00 8.85807574D+01
                -3.26173302D+00 1.96120831D+01 6.68511501D+01
 HyperPolar    = 7.40970665D+00 4.85226488D+00-6.06936884D+01
                -6.62835943D+02 2.73708576D+01-3.18641324D+01
                -5.07945127D+02-7.52490166D+00-2.82137365D+02
                -1.98308054D+02
 -------------------------------------------------------------------
 Center     Atomic                   Forces (Hartrees/Bohr)
 Number     Number              X              Y              Z
 -------------------------------------------------------------------
      1        8           0.000901665    0.002441952    0.000068795
      2        6           0.001116072    0.000078677    0.000054301
      3        6           0.000682840    0.000988533    0.001570142
      4        6          -0.000364862    0.000638876   -0.000394283
      5        6          -0.001379048   -0.000778680    0.002242098
      6        6           0.022905554    0.022607944    0.030594207
      7        1          -0.001897401    0.000345065   -0.000521650
      8        6           0.003523482    0.002458418   -0.006419906
      9        8           0.000025716   -0.000128899    0.000851448
     10        6          -0.000683052   -0.003062153    0.000141449
     11        1          -0.000826683   -0.000380863    0.000266742
     12        1           0.000820796   -0.001731842   -0.000510335
     13        1          -0.001091021    0.001012511    0.000319506
     14        1           0.000086082   -0.000542991   -0.000840813
     15        1           0.000936531    0.000655723   -0.001608753
     16        1          -0.001664647   -0.002504516    0.002297215
     17        1          -0.000276300    0.000198217   -0.001409439
     18        1           0.001018312    0.000146003    0.000328658
     19        1          -0.000174093    0.001179752   -0.000849012
     20        1          -0.000048286    0.001354924   -0.000860438
     21        8          -0.003910544    0.005908777    0.004203436
     22        8          -0.019701113   -0.030885427   -0.029523369
 -------------------------------------------------------------------
 Cartesian Forces:  Max     0.030885427 RMS     0.008148387
 Leave Link  716 at Wed Feb 17 08:26:29 2021, MaxMem=    33554432 cpu:         0.0
 (Enter /cm/shared/apps/Gaussian09/g09/l103.exe)

 GradGradGradGradGradGradGradGradGradGradGradGradGradGradGradGradGradGrad
 Berny optimization.
 Search for a saddle point.
 Step number   1 out of a maximum of  100
 All quantities printed in internal units (Hartrees-Bohrs-Radians)
 Swapping is turned off.
 Second derivative matrix not updated -- analytic derivatives used.
 ITU=  0
     Eigenvalues ---   -0.00489  -0.00065   0.00001   0.00010   0.00018
     Eigenvalues ---    0.00023   0.00047   0.00055   0.00110   0.00121
     Eigenvalues ---    0.00154   0.00176   0.00273   0.00560   0.00730
     Eigenvalues ---    0.01365   0.01472   0.01692   0.02092   0.03406
     Eigenvalues ---    0.03769   0.04051   0.04623   0.04905   0.05528
     Eigenvalues ---    0.05586   0.05895   0.06576   0.07028   0.07941
     Eigenvalues ---    0.08452   0.08534   0.08660   0.10400   0.10827
     Eigenvalues ---    0.12268   0.14586   0.15685   0.16518   0.21529
     Eigenvalues ---    0.24151   0.29333   0.29529   0.34898   0.41132
     Eigenvalues ---    0.47449   0.51961   0.54750   0.59472   0.60086
     Eigenvalues ---    0.60589   0.61778   0.62279   0.66520   0.67183
     Eigenvalues ---    0.71437   0.84777   0.84966   1.66181   2.13231
 Eigenvectors required to have negative eigenvalues:
                          Z7        Z22       Y7        Y22       Z8
   1                    0.45679  -0.32682  -0.31648   0.29602   0.27226
                          Z6        Z21       Y21       X7        X8
   1                    0.23361  -0.20503   0.19358  -0.19085   0.15244
 Eigenvalue     2 is  -6.49D-04 should be greater than     0.000000 Eigenvector:
                          X21       X16       Z17       X19       X18
   1                    0.34448  -0.27016  -0.25104  -0.23694  -0.23157
                          X8        X10       Z21       Y7        X20
   1                    0.22878  -0.22256   0.21352   0.20638  -0.19526
 RFO step:  Lambda0=1.049312930D-05 Lambda=-8.87840543D-03.
 Linear search not attempted -- option 19 set.
 Maximum step size (   0.300) exceeded in Quadratic search.
    -- Step size scaled by   0.279
 TrRot= -0.021021  0.000051 -0.005440  1.194411 -0.000781 -1.196189
 Variable       Old X    -DE/DX   Delta X   Delta X   Delta X     New X
                                 (Linear)    (Quad)   (Total)
    X1       -1.33397   0.00090   0.00000   0.00842   0.00010  -1.33387
    Y1        7.26210   0.00244   0.00000   0.06320   0.06476   7.32686
    Z1        1.10591   0.00007   0.00000   0.04960   0.04910   1.15502
    X2       -0.40312   0.00112   0.00000   0.01668   0.01177  -0.39135
    Y2        9.02171   0.00008   0.00000   0.03480   0.03552   9.05723
    Z2       -0.02124   0.00005   0.00000   0.01293   0.01397  -0.00728
    X3       -1.14619   0.00068   0.00000   0.00965   0.00690  -1.13929
    Y3        9.85374   0.00099   0.00000  -0.00526  -0.00128   9.85246
    Z3       -2.65735   0.00157   0.00000   0.00384   0.00523  -2.65212
    X4       -3.89849  -0.00036   0.00000   0.01140   0.00795  -3.89054
    Y4        9.35486   0.00064   0.00000  -0.02712  -0.01772   9.33714
    Z4       -3.39947  -0.00039   0.00000   0.01060   0.01082  -3.38865
    X5       -4.86464  -0.00138   0.00000   0.02314   0.01477  -4.84987
    Y5        6.69024  -0.00078   0.00000  -0.02725  -0.01660   6.67365
    Z5       -2.80552   0.00224   0.00000   0.03818   0.03620  -2.76933
    X6       -3.31036   0.02291   0.00000   0.00005  -0.01170  -3.32205
    Y6        4.61956   0.02261   0.00000  -0.02729  -0.01857   4.60099
    Z6       -3.85818   0.03059   0.00000   0.01286   0.00981  -3.84836
    X7       -1.40388  -0.00190   0.00000  -0.00252  -0.01518  -1.41906
    Y7        4.24477   0.00035   0.00000  -0.07158  -0.06667   4.17809
    Z7       -3.22308  -0.00052   0.00000  -0.03429  -0.03710  -3.26018
    X8       -0.34988   0.00352   0.00000  -0.04719  -0.05586  -0.40574
    Y8        5.66296   0.00246   0.00000   0.06406   0.07029   5.73325
    Z8       -7.44821  -0.00642   0.00000  -0.10407  -0.10546  -7.55366
    X9        1.59696   0.00003   0.00000  -0.01550  -0.02260   1.57436
    Y9        6.54645  -0.00013   0.00000   0.04086   0.04370   6.59015
    Z9       -7.75628   0.00085   0.00000   0.02973   0.02953  -7.72675
   X10       -0.82604  -0.00068   0.00000   0.05546   0.04198  -0.78406
   Y10        2.43807  -0.00306   0.00000  -0.03275  -0.02306   2.41501
   Z10      -11.39543   0.00014   0.00000   0.00694   0.00303 -11.39240
   X11        1.15941  -0.00083   0.00000   0.02603   0.02286   1.18227
   Y11       10.13177  -0.00038   0.00000   0.03778   0.03512  10.16689
   Z11        0.81060   0.00027   0.00000  -0.01099  -0.00870   0.80191
   X12       -0.77165   0.00082   0.00000   0.00638   0.00736  -0.76428
   Y12       11.91405  -0.00173   0.00000  -0.00944  -0.00595  11.90810
   Z12       -2.87184  -0.00051   0.00000  -0.02722  -0.02423  -2.89607
   X13        0.17231  -0.00109   0.00000   0.00899   0.00492   0.17723
   Y13        8.90546   0.00101   0.00000  -0.01758  -0.01498   8.89048
   Z13       -3.99821   0.00032   0.00000   0.01266   0.01373  -3.98448
   X14       -5.12684   0.00009   0.00000   0.00368   0.00239  -5.12445
   Y14       10.73000  -0.00054   0.00000  -0.02346  -0.01258  10.71742
   Z14       -2.38724  -0.00084   0.00000  -0.00617  -0.00529  -2.39253
   X15       -4.15599   0.00094   0.00000   0.01346   0.01125  -4.14474
   Y15        9.74781   0.00066   0.00000  -0.04755  -0.03621   9.71160
   Z15       -5.43594  -0.00161   0.00000   0.00446   0.00489  -5.43105
   X16       -4.84111  -0.00166   0.00000   0.04517   0.03580  -4.80531
   Y16        6.47082  -0.00250   0.00000  -0.03090  -0.02185   6.44897
   Z16       -0.69727   0.00230   0.00000   0.03861   0.03648  -0.66079
   X17       -6.87336  -0.00028   0.00000   0.01540   0.00688  -6.86648
   Y17        6.51091   0.00020   0.00000  -0.02428  -0.00964   6.50127
   Z17       -3.37484  -0.00141   0.00000   0.05758   0.05490  -3.31994
   X18       -1.90787   0.00102   0.00000   0.06110   0.05003  -1.85785
   Y18        3.58289   0.00015   0.00000  -0.03139  -0.01889   3.56399
   Z18      -12.62902   0.00033   0.00000   0.00308  -0.00031 -12.62933
   X19        1.14261  -0.00017   0.00000   0.05943   0.04562   1.18823
   Y19        2.19345   0.00118   0.00000  -0.01265  -0.00629   2.18716
   Z19      -11.65498  -0.00085   0.00000   0.02110   0.01759 -11.63739
   X20       -1.75502  -0.00005   0.00000   0.04689   0.03114  -1.72388
   Y20        1.39410   0.00135   0.00000  -0.03310  -0.02280   1.37130
   Z20       -9.93358  -0.00086   0.00000  -0.00200  -0.00693  -9.94051
   X21       -3.33896  -0.00391   0.00000  -0.10758  -0.12460  -3.46356
   Y21        1.21988   0.00591   0.00000   0.00778   0.01852   1.23840
   Z21       -6.23946   0.00420   0.00000  -0.05234  -0.05787  -6.29733
   X22       -4.53603  -0.01970   0.00000  -0.05779  -0.07175  -4.60778
   Y22        3.07378  -0.03089   0.00000   0.01301   0.02516   3.09894
   Z22       -5.39300  -0.02952   0.00000  -0.03490  -0.03941  -5.43241
         Item               Value     Threshold  Converged?
 Maximum Force            0.030885     0.000450     NO 
 RMS     Force            0.008148     0.000300     NO 
 Maximum Displacement     0.124604     0.001800     NO 
 RMS     Displacement     0.036141     0.001200     NO 
 Predicted change in Energy=-2.448266D-03
 Lowest energy point so far.  Saving SCF results.
 GradGradGradGradGradGradGradGradGradGradGradGradGradGradGradGradGradGrad

 Leave Link  103 at Wed Feb 17 08:26:29 2021, MaxMem=    33554432 cpu:         0.0
 (Enter /cm/shared/apps/Gaussian09/g09/l202.exe)
                          Input orientation:                          
 ---------------------------------------------------------------------
 Center     Atomic      Atomic             Coordinates (Angstroms)
 Number     Number       Type             X           Y           Z
 ---------------------------------------------------------------------
      1          8           0       -0.705854    3.877207    0.611208
      2          6           0       -0.207096    4.792881   -0.003851
      3          6           0       -0.602884    5.213699   -1.403443
      4          6           0       -2.058787    4.941003   -1.793194
      5          6           0       -2.566439    3.531541   -1.465466
      6          6           0       -1.757955    2.434739   -2.036466
      7          1           0       -0.750936    2.210951   -1.725212
      8          6           0       -0.214710    3.033908   -3.997227
      9          8           0        0.833118    3.487360   -4.088818
     10          6           0       -0.414906    1.277967   -6.028600
     11          1           0        0.625629    5.380087    0.424351
     12          1           0       -0.404442    6.301496   -1.532534
     13          1           0        0.093784    4.704641   -2.108497
     14          1           0       -2.711741    5.671413   -1.266072
     15          1           0       -2.193303    5.139159   -2.873990
     16          1           0       -2.542861    3.412648   -0.349674
     17          1           0       -3.633585    3.440324   -1.756839
     18          1           0       -0.983131    1.885984   -6.683152
     19          1           0        0.628783    1.157396   -6.158241
     20          1           0       -0.912238    0.725660   -5.260293
     21          8           0       -1.832837    0.655333   -3.332404
     22          8           0       -2.438334    1.639889   -2.874708
 ---------------------------------------------------------------------
                    Distance matrix (angstroms):
                    1          2          3          4          5
     1  O    0.000000
     2  C    1.210584   0.000000
     3  C    2.419841   1.514132   0.000000
     4  C    2.956897   2.579234   1.531640   0.000000
     5  C    2.809597   3.048573   2.586320   1.533525   0.000000
     6  C    3.193401   3.478149   3.075309   2.535949   1.477384
     7  H    2.870069   3.150429   3.023566   3.027916   2.259973
     8  C    4.710631   4.363610   3.410262   3.448970   3.491143
     9  O    4.960913   4.412866   3.500513   3.968133   4.294289
    10  C    7.136368   6.978209   6.075969   5.835996   5.525386
    11  H    2.016534   1.105259   2.208565   3.509471   4.144614
    12  H    3.250178   2.156789   1.113259   2.157717   3.514453
    13  H    2.953111   2.127875   1.114267   2.188343   2.977657
    14  H    3.281301   2.939093   2.162325   1.112522   2.154047
    15  H    3.993949   3.507510   2.167370   1.107014   2.169702
    16  H    2.124548   2.735039   2.849162   2.157301   1.122356
    17  H    3.790795   4.079609   3.529150   2.175626   1.109964
    18  H    7.566343   7.325663   6.252488   5.865311   5.695522
    19  H    7.416472   7.196663   6.370142   6.371213   6.153710
    20  H    6.667035   6.683538   5.925663   5.577138   5.001006
    21  O    5.215615   5.553522   5.100234   4.559297   3.506595
    22  O    4.489843   4.812650   4.278506   3.494436   2.362356
                    6          7          8          9         10
     6  C    0.000000
     7  H    1.077519   0.000000
     8  C    2.566162   2.475247   0.000000
     9  O    3.468979   3.118506   1.145404   0.000000
    10  C    4.367955   4.416166   2.692561   3.194015   0.000000
    11  H    4.517982   4.069271   5.075536   4.898383   7.716908
    12  H    4.127681   4.109713   4.097297   3.998188   6.741703
    13  H    2.930286   2.660629   2.540436   2.439274   5.231449
    14  H    3.461108   4.003793   4.544315   5.030309   6.874554
    15  H    2.864412   3.460420   3.099770   3.655608   5.293681
    16  H    2.101821   2.558744   4.343774   5.038255   6.429250
    17  H    2.146481   3.134011   4.107702   5.039025   5.769196
    18  H    4.742697   4.974002   3.020331   3.548765   1.058775
    19  H    4.931242   4.760814   2.983749   3.122978   1.058598
    20  H    3.745563   3.837826   2.722111   3.470677   1.068961
    21  O    2.202578   2.484659   2.952616   3.962304   3.109288
    22  O    1.340653   2.120086   2.854442   3.948367   3.764609
                   11         12         13         14         15
    11  H    0.000000
    12  H    2.395713   0.000000
    13  H    2.674772   1.769155   0.000000
    14  H    3.752391   2.406582   3.084688   0.000000
    15  H    4.345512   2.520030   2.450623   1.771291   0.000000
    16  H    3.809102   3.783839   3.422660   2.443425   3.078182
    17  H    5.163446   4.320183   3.951638   2.463414   2.491682
    18  H    8.081674   6.808854   5.480150   6.830983   5.153385
    19  H    7.820591   6.994747   5.410138   7.447736   5.882593
    20  H    7.506257   6.726365   5.174764   6.607002   5.178276
    21  O    6.517712   6.095819   4.648302   5.495749   4.521590
    22  O    5.853267   5.260107   4.048630   4.349212   3.507838
                   16         17         18         19         20
    16  H    0.000000
    17  H    1.780607   0.000000
    18  H    6.698985   5.805983   0.000000
    19  H    6.991776   6.538492   1.845166   0.000000
    20  H    5.830352   5.200896   1.837364   1.835062   0.000000
    21  O    4.123542   3.671686   3.669334   3.781137   2.137569
    22  O    3.086972   2.433069   4.084412   4.519026   2.975869
                   21         22
    21  O    0.000000
    22  O    1.243166   0.000000
 Symmetry turned off by external request.
 Stoichiometry    C7H11O4(2)
 Framework group  C1[X(C7H11O4)]
 Deg. of freedom    60
 Full point group                 C1      NOp   1
 Rotational constants (GHZ):      1.4366221      0.6059027      0.4995189
 Leave Link  202 at Wed Feb 17 08:26:29 2021, MaxMem=    33554432 cpu:         0.0
 (Enter /cm/shared/apps/Gaussian09/g09/l301.exe)
 Standard basis: VSTO-6G (5D, 7F)
 Ernie: Thresh=  0.10000D-02 Tol=  0.10000D-05 Strict=F.
  NNHCO=     0 NNPyr=     0 NCTC=     0               EPep=         0.000000000
    EC=       293.263833456  ECS=         4.396998994   EG=         0.312495503
   EHC=         0.002008182  EAt=       -76.388488019  AtH=         3.199295150
 EPDDG=         0.000000000  ECC=       297.975336134 EAtT=        79.587783169
    55 basis functions,   330 primitive gaussians,    55 cartesian basis functions
    32 alpha electrons       31 beta electrons
       nuclear repulsion energy       377.5631193029 Hartrees.
 IExCor=    0 DFT=F Ex=HF Corr=None ExCW=0 ScaHFX=  1.000000
 ScaDFX=  1.000000  1.000000  1.000000  1.000000 ScalE2=  1.000000  1.000000
 IRadAn=      0 IRanWt=     -1 IRanGd=            0 ICorTp=0 IEmpDi=  4
 Integral buffers will be    131072 words long.
 Regular integral format.
 Two-electron integral symmetry is turned off.
 Leave Link  301 at Wed Feb 17 08:26:29 2021, MaxMem=    33554432 cpu:         0.0
 (Enter /cm/shared/apps/Gaussian09/g09/l302.exe)
 Do NDO integrals.
 NPDir=0 NMtPBC=     1 NCelOv=     1 NCel=       1 NClECP=     1 NCelD=      1
         NCelK=      1 NCelE2=     1 NClLst=     1 CellRange=     0.0.
 One-electron integrals computed using PRISM.
 NBasis=    55 RedAO= F EigKep=  0.00D+00  NBF=    55
 NBsUse=    55 1.00D-04 EigRej=  0.00D+00 NBFU=    55
 Leave Link  302 at Wed Feb 17 08:26:29 2021, MaxMem=    33554432 cpu:         0.1
 (Enter /cm/shared/apps/Gaussian09/g09/l303.exe)
 DipDrv:  MaxL=1.
 Leave Link  303 at Wed Feb 17 08:26:29 2021, MaxMem=    33554432 cpu:         0.0
 (Enter /cm/shared/apps/Gaussian09/g09/l401.exe)
 Initial guess from the checkpoint file:  "/local/Gau-44108.chk"
 B after Tr=    -0.037983    0.000152   -0.012076
         Rot=    0.999998   -0.000787    0.000100    0.001674 Ang=  -0.21 deg.
 Guess basis will be translated and rotated to current coordinates.
 JPrj=0 DoOrth=T DoCkMO=T.
 Initial guess <Sx>= 0.0000 <Sy>= 0.0000 <Sz>= 0.5000 <S**2>= 1.3105 S= 0.7492
 Leave Link  401 at Wed Feb 17 08:26:29 2021, MaxMem=    33554432 cpu:         0.1
 (Enter /cm/shared/apps/Gaussian09/g09/l508.exe)
 Direct SCF.
 Tight linear equation convergence will be used.
 UPM6 wavefunction.
 Quadratic Convergence SCF Method.
 Line search only if initial step raises energy.
 Two-electron integral symmetry not used.
 ReadGW:  IGet=1 IStart=       59293 Next=       59293 LGW=           0.
 Keep J ints in memory in canonical form, NReq=909807.
 FoFCou: FMM=F IPFlag=           0 FMFlag=           0 FMFlg1=           0
         NFxFlg=           0 DoJE=F BraDBF=F KetDBF=F FulRan=T
         wScrn=  0.000000 ICntrl=     600 IOpCl=  2 I1Cent=           0 NGrid=           0
         NMat0=    1 NMatS0=    121 NMatT0=    0 NMatD0=    1 NMtDS0=    0 NMtDT0=    0
 Symmetry not used in FoFCou.
 Iteration   1 EE= 0.799611279433066E-02                                Grad=6.481D-02 Max rot=    1.2164 deg.
 Gradient too large for Newton-Raphson -- use scaled steepest descent instead.
 Alpha Gap=     0.366 HL deriv= 3.26D-05
  Beta Gap=     0.329 HL deriv= 7.46D-03
     ILin= 1 X=0.000D+00 Y= 7.996112794331D-03 DE= 0.00D+00 F= -9.21D-03
     ILin= 2 X=3.000D-01 Y= 5.494836250818D-03 DE=-2.50D-03 F= -7.46D-03
     ILin= 3 X=6.000D-01 Y= 3.517886732425D-03 DE=-4.48D-03 F= -5.72D-03
     ILin= 4 X=1.200D+00 Y= 1.138879039786D-03 DE=-6.86D-03 F= -2.21D-03
     ILin= 5 X=2.300D+00 Y= 2.235798715901D-03 DE=-5.76D-03 F=  4.21D-03
     An  expanding polynomial of degree  5 produced  1.5792
 Iteration   2 EE= 0.719110517707122E-03 Delta-E=       -0.007277002277 Grad=1.061D-02 Max rot=    0.2048 deg.
 Gradient too large for Newton-Raphson -- use scaled steepest descent instead.
 Alpha Gap=     0.366 HL deriv= 1.46D-05
  Beta Gap=     0.330 HL deriv= 3.13D-03
     ILin= 1 X=0.000D+00 Y= 7.191105177071D-04 DE= 0.00D+00 F= -2.85D-04
     ILin= 2 X=7.000D-01 Y= 5.594382107574D-04 DE=-1.60D-04 F= -1.71D-04
     ILin= 3 X=1.400D+00 Y= 4.792680472292D-04 DE=-2.40D-04 F= -5.77D-05
     ILin= 4 X=2.800D+00 Y= 5.576483556524D-04 DE=-1.61D-04 F=  1.70D-04
     An  expanding polynomial of degree  4 produced  1.7554
 Iteration   3 EE= 0.469011661834884E-03 Delta-E=       -0.000250098856 Grad=4.161D-03 Max rot=    0.0761 deg.
 QCNR:  CnvC1=3.85D-09 CnvC2=3.85D-08
 LinEq1:  Iter=  0 NonCon=     1 RMS=1.59D-04 Max=3.34D-03 NDo=     1
 AX will form     1 AO Fock derivatives at one time.
 LinEq1:  Iter=  1 NonCon=     1 RMS=4.14D-05 Max=5.01D-04 NDo=     1
 LinEq1:  Iter=  2 NonCon=     1 RMS=9.09D-06 Max=2.08D-04 NDo=     1
 LinEq1:  Iter=  3 NonCon=     1 RMS=2.33D-06 Max=2.31D-05 NDo=     1
 LinEq1:  Iter=  4 NonCon=     1 RMS=2.24D-07 Max=2.42D-06 NDo=     1
 LinEq1:  Iter=  5 NonCon=     1 RMS=6.76D-08 Max=6.44D-07 NDo=     1
 LinEq1:  Iter=  6 NonCon=     1 RMS=1.26D-08 Max=2.07D-07 NDo=     1
 LinEq1:  Iter=  7 NonCon=     0 RMS=2.75D-09 Max=3.69D-08 NDo=     1
 Linear equations converged to 3.847D-09 3.847D-08 after     7 iterations.
 Angle between quadratic step and gradient=  53.07 degrees.
     ILin= 1 X=0.000D+00 Y= 4.690116618349D-04 DE= 0.00D+00 F= -1.06D-04
     ILin= 2 X=1.000D+00 Y= 4.166706908109D-04 DE=-5.23D-05 F=  1.23D-06
     Accept linear search using points  1 and  2.
     An  expanding polynomial of degree  2 produced  0.9886
     Minimum is close to point  2 DX= -1.14D-02 DF= -6.99D-09 DXR=  1.15D-02 DFR=  1.33D-04 which will be used.
 Iteration   4 EE= 0.416670690810861E-03 Delta-E=       -0.000052340971 Grad=4.588D-05 Max rot=    0.0015 deg.
 QCNR:  CnvC1=4.59D-10 CnvC2=4.59D-09
 LinEq1:  Iter=  0 NonCon=     1 RMS=2.74D-06 Max=6.62D-05 NDo=     1
 LinEq1:  Iter=  1 NonCon=     1 RMS=5.13D-07 Max=1.22D-05 NDo=     1
 LinEq1:  Iter=  2 NonCon=     1 RMS=9.16D-08 Max=1.01D-06 NDo=     1
 LinEq1:  Iter=  3 NonCon=     1 RMS=1.95D-08 Max=2.67D-07 NDo=     1
 LinEq1:  Iter=  4 NonCon=     1 RMS=3.44D-09 Max=3.51D-08 NDo=     1
 LinEq1:  Iter=  5 NonCon=     1 RMS=6.57D-10 Max=7.43D-09 NDo=     1
 LinEq1:  Iter=  6 NonCon=     0 RMS=1.35D-10 Max=1.32D-09 NDo=     1
 Linear equations converged to 4.588D-10 4.588D-09 after     6 iterations.
 Angle between quadratic step and gradient=  33.44 degrees.
[...]
 9,-0.00017227,0.00013854,0.00026386,0.00000938,0.00000322,0.00006762,0
 .00026877,0.00000773,-0.00034468,0.09821731,0.17960699,0.00177126,-0.0
 0225924,-0.00250361,0.01879161,0.02110832,-0.01890058,0.02395017,0.040
 83172,-0.04725202,-0.01145163,-0.01252126,0.00185276,-0.00188243,-0.00
 072939,-0.00140810,-0.00004088,0.00012636,-0.00004450,-0.00002282,-0.0
 0002778,0.00003156,0.00018273,0.00003616,-0.00023390,-0.00016003,0.000
 00239,0.00023592,0.00002538,0.00003945,-0.00001944,0.00032640,-0.00096
 434,-0.00064070,-0.03019006,-0.04808307,0.06556407,0.00120985,-0.00053
 464,0.00002759,-0.01401540,0.01495212,0.01550153,-0.10898514,0.0882490
 2,-0.00366291,-0.02485898,0.01383149,-0.01352210,-0.00051348,-0.000082
 11,0.00035884,-0.00035633,-0.00054182,-0.00026984,0.00031330,-0.000310
 28,-0.00004913,-0.00025282,0.00005549,0.00004283,0.00018516,-0.0000383
 0,-0.00004912,-0.00005819,-0.00000749,0.00006188,0.00052732,-0.0004580
 9,0.00019362,0.00608348,-0.00303161,-0.00020694,0.14261993,-0.00224073
 ,-0.00094293,0.00091412,0.01367380,-0.00463498,-0.01205183,0.08849149,
 -0.13083041,0.00211846,0.00517981,0.00375896,0.00374307,-0.00022898,-0
 .00005282,0.00003740,-0.00039847,-0.00021374,-0.00022308,-0.00017394,-
 0.00040826,-0.00027905,0.00015630,-0.00024057,-0.00006288,-0.00012950,
 0.00019040,0.00010519,0.00001915,-0.00002199,0.00009487,-0.00024208,0.
 00008246,-0.00006586,0.00842774,-0.02378040,0.00371755,-0.11195725,0.1
 5685780,0.00085139,0.00213833,-0.00275578,0.01945057,-0.02100596,-0.00
 685446,-0.00066680,-0.00085717,-0.03179610,-0.01816436,0.01044887,-0.0
 0415647,-0.00013243,-0.00010778,-0.00003938,-0.00016691,-0.00007723,-0
 .00028542,-0.00006194,-0.00034005,0.00020059,0.00039336,-0.00017574,-0
 .00038415,-0.00035558,0.00020243,0.00048122,0.00003581,0.00004422,0.00
 004027,-0.00055946,0.00117885,-0.00138032,-0.00264110,0.00641676,0.003
 30330,0.00417945,0.00218075,0.04519829,-0.00084482,0.00018331,-0.00006
 301,0.00106636,0.00020901,-0.00109117,-0.02672289,0.01282156,-0.011847
 09,-0.11826754,0.08905090,0.00424907,0.00615685,-0.00407825,-0.0001845
 8,-0.00057776,-0.00114238,0.00008650,-0.00006984,0.00003205,-0.0000766
 7,-0.00007836,0.00004189,0.00021927,0.00008704,-0.00006565,-0.00021479
 ,-0.00002150,-0.00000482,-0.00008134,-0.00012592,-0.00000549,0.0002757
 6,-0.00084318,-0.00006768,-0.00026567,-0.00152795,-0.00029932,-0.00158
 184,0.15023254,0.00029519,-0.00032185,-0.00031942,-0.00050235,0.000581
 37,0.00095751,0.00441087,0.00256887,0.00262504,0.08876673,-0.12430326,
 -0.00359292,0.00901466,-0.03793829,0.00117577,-0.00118145,-0.00196292,
 0.00024809,-0.00003823,0.00007885,0.00001353,0.00005239,-0.00004902,-0
 .00021344,-0.00008042,0.00007366,0.00022433,0.00000302,0.00001636,0.00
 003863,0.00007209,0.00002152,-0.00009298,-0.00020709,0.00051935,-0.000
 19249,-0.00010740,0.00001142,-0.00044542,-0.10585122,0.16257995,0.0008
 6871,-0.00020944,0.00067013,-0.00241654,0.00037409,-0.00091392,-0.0206
 1705,0.01018597,-0.00458115,0.00656696,-0.00598271,-0.03397116,-0.0020
 1167,0.00492372,0.00321103,0.00042069,0.00034992,0.00009861,0.00002377
 ,-0.00001340,0.00000244,-0.00000205,0.00000947,-0.00005976,0.00001653,
 -0.00001817,0.00002619,-0.00001466,0.00004421,0.00000231,-0.00000873,0
 .00008890,0.00006267,-0.00026759,0.00012523,0.00020099,-0.00169979,-0.
 00050323,-0.00136951,0.00294666,0.00365826,0.04048058,0.00009151,0.000
 07501,0.00022512,-0.00203188,-0.00047076,-0.00135449,0.00360473,-0.001
 32609,-0.01870265,-0.06436131,-0.00191389,0.06866612,-0.00760090,-0.01
 024432,0.01378396,0.00024545,-0.00017325,0.00032005,0.00006705,0.00011
 313,-0.00004970,-0.00041221,-0.00001918,0.00079702,0.00045769,-0.00017
 138,-0.00087715,-0.00008436,-0.00003362,-0.00001138,0.00024386,-0.0001
 6701,-0.00037158,0.00033458,-0.00017764,-0.00080498,0.00018422,-0.0001
 0726,-0.00065270,-0.00966877,0.00561739,0.01636746,0.07978540,0.000026
 50,-0.00003538,-0.00004896,-0.00035076,0.00027369,-0.00044077,-0.00031
 917,0.00245351,-0.00459955,-0.00113624,-0.03343785,0.00372862,-0.01659
 664,-0.01117273,0.02225278,-0.00014691,-0.00109088,0.00097575,-0.00005
 630,-0.00024729,0.00021040,0.00007332,-0.00035158,-0.00061974,-0.00019
 332,0.00032960,0.00065839,0.00002668,0.00003710,0.00009321,0.00006074,
 -0.00006077,-0.00008055,-0.00039107,0.00009655,-0.00086182,0.00019722,
 0.00023272,0.00040346,0.01020898,-0.00028858,-0.01315647,0.01070451,0.
 04587462,-0.00031611,-0.00002305,0.00065184,-0.00142259,-0.00040640,-0
 .00195474,-0.00378338,-0.00391496,-0.03427476,0.06608970,0.00565082,-0
 .17928021,0.00987493,0.01039106,-0.00794752,-0.00007865,0.00103848,-0.
 00019489,-0.00006530,0.00000716,0.00001717,-0.00002911,0.00011241,-0.0
 0099184,-0.00014622,0.00005567,0.00087826,0.00003824,0.00015488,-0.000
 02953,0.00007841,-0.00010270,-0.00023073,-0.00045456,-0.00055224,-0.00
 024679,-0.00048370,0.00030752,-0.00038133,0.00771186,-0.00403838,-0.00
 439701,-0.07784548,-0.00912536,0.22802615,-0.00111845,-0.00042410,-0.0
 0022329,-0.00007208,-0.00145520,-0.00159456,-0.00085305,0.00021615,0.0
 0037964,-0.00530207,-0.01132720,0.01464967,-0.04534742,-0.00492704,0.0
 4538703,-0.00838692,0.01006924,0.02088570,-0.00028480,0.00042284,-0.00
 004261,-0.00009111,0.00008989,0.00018906,0.00009725,-0.00009479,-0.000
 20118,-0.00003342,-0.00002202,-0.00006966,-0.00012467,-0.00011125,0.00
 011650,0.00005969,-0.00006506,0.00010091,-0.00045634,-0.00028675,0.000
 08703,0.00030805,-0.00012662,0.00000144,-0.00037373,-0.00143939,0.0004
 1981,0.06044687,0.00138459,-0.00012773,-0.00054543,-0.00291786,-0.0013
 7115,-0.00018445,-0.00013378,-0.00006639,-0.00038347,-0.01264263,-0.01
 146886,0.02308038,-0.00321979,-0.03065854,0.01368396,0.01032383,-0.004
 79293,-0.01865386,0.00039789,0.00008433,-0.00023447,-0.00001813,0.0000
 1516,-0.00000083,0.00001104,-0.00000931,-0.00000068,-0.00001246,-0.000
 01331,0.00003335,0.00012043,-0.00009181,-0.00011385,0.00003285,0.00000
 362,0.00011363,-0.00021744,0.00010622,0.00003945,-0.00018621,-0.000471
 55,0.00066964,-0.00129566,-0.00234892,0.00044886,0.00717385,0.04940195
 ,0.00249366,0.00237149,-0.00102238,-0.00392330,-0.00176728,0.00210263,
 0.00035443,-0.00001541,-0.00109904,0.00935980,0.01241179,-0.00876733,0
 .04560915,0.01629086,-0.18688452,0.01468647,-0.01320244,-0.01564742,0.
 00038915,0.00002371,0.00050555,0.00005998,-0.00014100,-0.00028472,-0.0
 0007304,0.00014459,0.00027435,-0.00003289,0.00004182,0.00020450,0.0003
 0556,-0.00030067,-0.00029534,-0.00009483,-0.00004234,-0.00010622,-0.00
 010947,0.00001283,0.00019935,-0.00022246,0.00052606,0.00007087,0.00029
 297,0.00036936,-0.00012660,-0.06449280,-0.01765505,0.23216558,-0.00025
 468,0.00016574,0.00026151,0.00024520,-0.00011469,-0.00039214,-0.000296
 78,-0.00103888,0.00053824,-0.01990392,-0.01480532,-0.00865336,-0.15761
 049,-0.00225375,-0.07776923,-0.02942677,0.01602111,-0.00821570,-0.0007
 2684,0.00136278,0.00007769,-0.00007234,0.00011883,0.00030374,0.0000936
 9,-0.00013337,-0.00029714,-0.00006483,0.00000011,-0.00015126,-0.000039
 77,-0.00001302,0.00005188,-0.00017984,-0.00010696,-0.00012388,-0.00003
 040,-0.00000439,0.00003713,0.00060660,-0.00032499,-0.00014098,-0.00048
 861,-0.00036535,0.00033690,0.00247824,0.00003516,-0.00469073,0.2056743
 4,0.00028727,-0.00001043,0.00007363,-0.00028083,0.00005238,0.00028465,
 -0.00159502,-0.00252306,0.00016927,-0.02345701,-0.00921759,-0.01028002
 ,-0.00117940,-0.03453311,-0.00122300,0.02512699,-0.00485475,0.00964870
 ,0.00122021,-0.00163394,-0.00126927,-0.00002593,0.00005862,0.00011775,
 0.00003662,-0.00004711,-0.00011318,-0.00003353,-0.00004464,0.00007146,
 0.00001804,0.00002655,-0.00002012,-0.00032205,-0.00006345,-0.00035050,
 0.00014382,-0.00002534,0.00007055,-0.00084329,-0.00076303,-0.00054106,
 -0.00042530,-0.00011925,0.00007394,0.00101335,0.00361388,0.00127393,0.
 00027882,0.05068136,0.00041799,0.00021401,0.00011362,-0.00050118,-0.00
 012497,0.00015185,0.00041777,0.00036088,-0.00008254,-0.00244411,-0.003
 34214,0.00287607,-0.08174943,-0.00114863,-0.08312671,0.00160491,0.0018
 9398,0.00587796,0.00013706,-0.00127414,0.00004941,-0.00003667,-0.00004
 882,-0.00016097,0.00002712,0.00003807,0.00013353,-0.00007858,0.0001091
 0,0.00005220,0.00002237,0.00000226,-0.00003732,-0.00000440,-0.00001073
 ,0.00008103,-0.00006177,0.00002527,0.00001313,-0.00004711,-0.00035060,
 0.00044304,0.00028575,0.00034814,0.00028824,-0.01594723,0.00069322,-0.
 02045315,0.09777170,0.00263418,0.09371868,-0.00002864,0.00000320,0.000
 01666,0.00003341,-0.00000662,-0.00003487,-0.00002278,0.00002227,0.0000
 1786,-0.00002520,0.00002160,0.00000539,-0.00002799,0.00002159,0.000001
 20,0.00004576,0.00012143,0.00014207,-0.00000940,0.00000484,-0.00002271
 ,0.00007168,-0.00013093,-0.00024709,-0.00007317,0.00010965,0.00022947,
 -0.12489369,-0.02380782,-0.10025622,-0.00000225,-0.00000132,0.00000346
 ,0.00000533,-0.00000574,-0.00000261,0.00000518,-0.00001100,-0.00000806
 ,0.00001280,-0.00000237,0.00000307,0.00001501,-0.00001002,-0.00000150,
 0.00001471,-0.00000055,-0.00001083,0.00003297,-0.00000094,0.00001509,0
 .13682672,-0.00001904,-0.00000247,0.00003608,0.00002789,-0.00000029,-0
 .00005805,0.00000350,0.00000226,0.00004605,-0.00001918,0.00000402,0.00
 002374,0.00000725,0.00001012,0.00004965,-0.00002301,-0.00010759,-0.000
 04944,0.00000049,0.00003186,-0.00002678,-0.00010004,-0.00000029,-0.000
 08889,0.00007501,-0.00005070,0.00003682,-0.02386526,-0.03267545,-0.020
 98427,-0.00000570,0.00000036,0.00000469,-0.00000255,-0.00000211,-0.000
 00787,-0.00000447,0.00000281,-0.00001030,0.00000375,-0.00000421,-0.000
 01297,0.00000247,-0.00000925,-0.00003388,0.00000820,0.00000146,-0.0000
 2286,0.00000564,0.00000725,-0.00003244,0.03344036,0.01936175,-0.000014
 82,0.00002194,0.00004456,0.00001976,-0.00002471,-0.00006696,0.00001588
 ,0.00005126,0.00003875,-0.00004412,0.00001793,0.00000403,0.00000601,0.
 00004753,0.00008943,0.00005537,-0.00000824,0.00006528,-0.00003501,0.00
 003613,-0.00001856,-0.00003017,-0.00007031,-0.00008553,0.00005240,0.00
 008315,0.00006815,-0.10078355,-0.02103723,-0.14526568,-0.00000600,-0.0
 0000265,0.00000447,-0.00000446,-0.00001412,0.00000099,-0.00001062,-0.0
 0001633,-0.00001040,0.00001431,-0.00001047,-0.00000387,0.00000435,-0.0
 0002016,-0.00000700,0.00001055,-0.00000516,-0.00003946,0.00002029,-0.0
 0001345,-0.00002420,0.11714303,0.02140964,0.16209727,-0.00004224,-0.00
 002172,-0.00000729,0.00005366,0.00001729,-0.00001172,-0.00007407,-0.00
 001697,0.00001614,0.00001021,0.00000864,0.00002070,-0.00006518,-0.0000
 4517,-0.00007992,-0.00009710,-0.00005419,-0.00002791,0.00007776,-0.000
 03241,-0.00001167,0.00060346,-0.00078193,-0.00146827,-0.00037690,0.001
 03277,0.00157226,-0.19327336,-0.07956336,0.03547368,0.00000045,0.00000
 070,0.00000280,0.00001773,-0.00000024,-0.00001315,0.00003024,-0.000000
 10,-0.00001411,0.00000095,-0.00000001,0.00000661,0.00003783,-0.0000052
 1,-0.00001883,0.00000424,0.00000673,0.00002991,0.00000306,0.00001538,0
 .00002968,-0.01729131,-0.01109306,-0.00145354,0.21526000,-0.00003580,-
 0.00001473,0.00003513,0.00005086,0.00001078,-0.00006636,-0.00002730,-0
 .00001533,0.00006128,-0.00001208,0.00000378,0.00004197,-0.00001736,-0.
 00001858,0.00002185,-0.00010168,-0.00021179,-0.00013625,0.00004041,0.0
 0002519,-0.00002847,0.00007413,-0.00045289,-0.00119811,-0.00008637,0.0
 0014396,0.00093326,-0.07916785,-0.06468298,0.01883901,-0.00000629,0.00
 000131,0.00000640,0.00000430,-0.00000081,-0.00001730,0.00000751,0.0000
 0870,-0.00001873,0.00000244,-0.00000526,-0.00001319,0.00002266,-0.0000
 1248,-0.00005760,0.00000654,0.00000501,-0.00000753,-0.00000047,0.00001
 588,-0.00002695,-0.00833353,0.00507452,0.00023173,0.09758581,0.0566715
 4,-0.00003216,0.00001859,0.00005304,0.00004201,-0.00002451,-0.00008787
 ,-0.00000497,0.00006037,0.00005442,-0.00005476,0.00002900,0.00001227,-
 0.00003002,0.00004395,0.00007026,0.00004660,-0.00001326,0.00012410,-0.
 00001137,0.00002626,-0.00005131,-0.00009582,-0.00059291,-0.00051778,-0
 .00015677,0.00011985,-0.00015615,0.03636849,0.01940929,-0.04369565,-0.
 00000756,-0.00000301,0.00000674,-0.00000090,-0.00001881,-0.00000247,-0
 .00000301,-0.00002291,-0.00001909,0.00001827,-0.00001269,-0.00000219,0
 .00001891,-0.00003129,-0.00001649,0.00001772,-0.00000262,-0.00004009,0
 .00003332,-0.00000485,-0.00001490,-0.01582810,-0.00606456,0.00439420,-
 0.03991329,-0.02434996,0.04575088,-0.00004332,-0.00001564,0.00000291,0
 .00005347,0.00000976,-0.00002518,-0.00006033,-0.00000172,0.00002045,-0
 .00000663,0.00001769,0.00001747,-0.00007903,-0.00002641,-0.00007637,-0
 .00002047,0.00010652,0.00019673,0.00005194,-0.00004793,-0.00005739,0.0
 0008779,-0.00039754,-0.00043133,-0.00007168,0.00031032,0.00031505,-0.0
 4352950,-0.01532341,0.03931874,-0.00000103,-0.00000002,0.00000375,0.00
 001294,-0.00000294,-0.00000938,0.00002316,-0.00000713,-0.00001307,0.00
 000647,-0.00000026,0.00000429,0.00002927,-0.00001065,-0.00001717,0.000
 01490,0.00000632,0.00001429,0.00002689,0.00002149,0.00003140,0.0054371
 7,0.00153923,-0.01498778,-0.00487836,-0.01012559,0.01968177,0.04340792
 ,-0.00003292,-0.00001267,0.00004096,0.00004804,0.00000804,-0.00007237,
 -0.00001390,-0.00000730,0.00006488,-0.00001849,0.00000592,0.00003858,-
 0.00001943,-0.00000401,0.00003865,-0.00007152,-0.00039081,-0.00024104,
 0.00004856,0.00005041,-0.00004811,-0.00012650,-0.00012191,-0.00018123,
 0.00006571,0.00003437,0.00008931,-0.01544372,-0.04566583,0.05610555,-0
 .00000701,0.00000124,0.00000672,0.00000074,-0.00000272,-0.00001355,0.0
 0000296,0.00000620,-0.00001740,0.00000230,-0.00000720,-0.00001611,0.00
 001155,-0.00001895,-0.00005687,0.00001153,0.00000456,-0.00001899,0.000
 00103,0.00001791,-0.00004822,-0.00129727,0.00840085,-0.00056236,-0.007
 21371,0.00335106,0.01159407,0.02397806,0.03451551,-0.00001431,0.000087
 90,0.00011625,0.00000891,-0.00009352,-0.00015844,0.00009073,0.00019015
 ,0.00005334,-0.00016090,0.00007908,-0.00004255,0.00004930,0.00022245,0
 .00023583,0.00051479,0.00074555,0.00082103,-0.00024675,0.00011919,-0.0
 0007309,-0.00029298,0.00049119,0.00102037,0.00018138,-0.00056242,-0.00
 096618,0.03886040,0.05516944,-0.20966947,-0.00001375,-0.00001021,0.000
 00881,-0.00002175,-0.00004013,0.00002381,-0.00005517,-0.00006654,-0.00
 001322,0.00005686,-0.00001710,0.00000671,-0.00000911,-0.00004557,0.000
 06669,0.00004583,-0.00002210,-0.00014200,0.00011815,-0.00005948,-0.000
 00180,-0.00117203,0.00568669,-0.02129015,0.00596329,0.00567352,-0.0057
 7869,-0.04344008,-0.06636925,0.23682911,-0.00011822,0.00032577,0.00050
 880,0.00007866,-0.00037339,-0.00073378,0.00043745,0.00090165,0.0001790
 4,-0.00051949,0.00041051,-0.00023521,0.00173685,-0.00166600,-0.0020851
 1,0.03071193,0.01387980,0.02809630,-0.00276764,0.00249476,0.00304181,-
 0.00016562,0.00055385,0.00066816,0.00033952,-0.00037015,-0.00085660,0.
 00029017,-0.00039977,0.00127711,-0.00006564,-0.00004064,0.00005064,-0.
 00011042,-0.00013109,0.00010529,-0.00035025,-0.00031440,-0.00006145,0.
 00025890,-0.00002934,0.00002557,-0.00004327,-0.00010281,0.00036772,0.0
 0064305,-0.00066275,-0.00069810,0.00051065,-0.00023209,-0.00014411,-0.
 00017965,0.00000387,-0.00008867,0.00009591,0.00014520,-0.00016867,-0.0
 0029996,0.00020505,-0.00164570,0.12047199,0.00029125,-0.00045079,-0.00
 087089,-0.00027819,0.00051528,0.00123322,-0.00043465,-0.00124872,-0.00
 042144,0.00116133,-0.00084246,0.00006362,-0.00199301,-0.00101197,-0.00
 747248,0.01129254,-0.08512159,-0.06681953,0.00081364,-0.00188850,0.002
 43081,0.00060857,-0.00134242,-0.00163131,-0.00087260,0.00102990,0.0017
 8986,0.00062115,0.00085919,-0.00110201,0.00010136,0.00006052,-0.000087
 57,0.00011057,0.00021588,-0.00011322,0.00038751,0.00045702,0.00014878,
 -0.00040503,0.00003332,-0.00003560,-0.00004338,0.00028721,-0.00046014,
 -0.00013966,-0.00098060,0.00076204,-0.00158749,0.00010673,-0.00038158,
 0.00004525,-0.00008513,0.00018250,-0.00026027,-0.00021652,-0.00002299,
 -0.00046318,-0.00054944,0.00182400,-0.14777277,0.28922237,0.00009739,-
 0.00023536,-0.00034506,-0.00006203,0.00027698,0.00047620,-0.00025931,-
 0.00056767,-0.00008172,0.00127619,-0.00098671,-0.00039064,-0.00376358,
 -0.00524034,-0.00237746,0.02578616,-0.06591280,-0.03562149,0.00174457,
 0.00342116,-0.00042280,0.00023877,-0.00062045,-0.00070067,-0.00034303,
 0.00048607,0.00071600,0.00094231,0.00049312,-0.00363103,0.00004100,0.0
 0003011,-0.00002970,0.00005649,0.00010296,-0.00008111,0.00017634,0.000
 20471,0.00001861,-0.00031482,-0.00016109,-0.00001451,0.00004851,0.0001
 4934,-0.00034360,-0.00005752,-0.00028345,0.00028220,-0.00093025,0.0000
 1120,-0.00046058,0.00004822,0.00007131,0.00026770,-0.00027838,-0.00005
 816,0.00015330,-0.00074259,-0.00031609,0.00033900,-0.05504748,0.145321
 84,0.09918881,0.00021904,-0.00022234,-0.00023010,-0.00018068,0.0003152
 0,0.00048085,-0.00006779,-0.00099237,0.00003857,-0.00100437,0.00093508
 ,0.00043508,0.00949340,0.00644169,0.01029471,-0.12877951,-0.02576401,-
 0.08538805,-0.01289261,-0.02032908,-0.03306422,-0.00026668,0.00016911,
 0.00053628,-0.00014942,-0.00033645,-0.00008383,0.00017460,0.00018075,-
 0.00070543,0.00003664,0.00004715,-0.00002942,0.00004555,0.00010152,-0.
 00007904,0.00022396,0.00045366,0.00004580,0.00001309,0.00022064,-0.000
 07308,-0.00003230,-0.00017465,-0.00025477,-0.00162230,0.00181239,0.000
 75365,-0.00057495,0.00023199,0.00025678,0.00005442,0.00001325,0.000116
 78,-0.00009607,-0.00002668,0.00007957,-0.00015953,-0.00013309,0.001182
 73,-0.15093800,0.13880046,0.03133405,0.28649424,-0.00037420,0.00053401
 ,0.00113504,0.00040820,-0.00062422,-0.00167173,0.00073530,0.00167877,0
 .00072239,-0.00017923,-0.00025564,-0.00066416,0.00608966,-0.03402101,-
 0.02223019,-0.03566908,-0.04331054,-0.03830229,-0.00643549,0.00610744,
 -0.01015238,-0.00087262,0.00201395,0.00277603,0.00111438,-0.00157432,-
 0.00285015,-0.00062380,-0.00092508,0.00235331,-0.00014463,-0.00006832,
 0.00012156,-0.00016255,-0.00028710,0.00016663,-0.00053670,-0.00056331,
 -0.00021743,0.00039385,-0.00036863,0.00007289,0.00002118,-0.00039237,0
 .00053063,0.00140860,-0.00083593,-0.00105538,0.00276080,-0.00074536,0.
 00046976,-0.00018206,0.00004108,-0.00029685,0.00042041,0.00032051,-0.0
 0013716,0.00043225,0.00038836,-0.00300257,0.13317791,-0.19905890,-0.07
 620045,-0.10175610,0.27195346,0.00004520,0.00045202,0.00063853,-0.0001
 1615,-0.00044759,-0.00075163,0.00076116,0.00080785,0.00023899,-0.00066
 712,0.00151657,0.00004135,0.01118888,-0.02383091,-0.01315586,-0.093963
 38,-0.03266299,-0.10659458,-0.02141713,-0.01842899,-0.01484647,-0.0000
 9851,0.00098240,0.00097693,0.00052050,-0.00056068,-0.00120469,-0.00024
 418,-0.00028779,0.00093620,-0.00006833,-0.00003805,0.00004029,-0.00013
 032,-0.00013603,0.00014498,-0.00035870,-0.00017039,-0.00000904,0.00041
 139,-0.00002170,0.00003826,-0.00013192,-0.00015936,0.00049446,0.000335
 28,-0.00067408,-0.00089662,0.00181541,-0.00055546,0.00056282,-0.000041
 09,0.00002598,-0.00026256,0.00018385,0.00013311,-0.00023657,0.00019371
 ,-0.00001615,-0.00138594,0.02745645,-0.07435330,-0.05693846,0.07434063
 ,0.14845371,0.19217269\\-0.00000014,-0.00000002,0.,-0.00000001,0.00000
 005,-0.00000003,-0.00000001,0.00000006,0.00000003,-0.00000007,0.000000
 03,-0.00000010,-0.00000005,-0.00000003,0.00000003,0.00000004,-0.000000
 07,0.00000007,0.00000009,0.,0.00000005,-0.00000028,0.00000026,0.000000
 43,0.00000029,-0.00000017,-0.00000044,0.00000148,-0.00000084,0.0000014
 0,0.00000003,0.00000008,0.00000004,0.,0.00000008,-0.00000003,0.0000000
 4,-0.00000002,0.,-0.00000008,0.00000004,-0.00000003,-0.00000003,0.,-0.
 00000005,0.,-0.00000001,0.00000004,-0.00000008,-0.00000004,-0.00000004
 ,-0.00000361,0.00000109,-0.00000231,0.00000187,0.,0.00000005,0.0000003
 6,-0.00000037,0.00000090,0.00000021,-0.00000019,-0.00000001,-0.0000000
 3,0.00000005,-0.00000001\\\@


 THE ONLY DIFFERENCE BETWEEN ECCENTRICS AND JOGGERS
 IS THAT JOGGERS WEAR SWEATBANDS WHEN THEY RUN IN THE RAIN.
 Job cpu time:       0 days  0 hours  1 minutes  4.1 seconds.
 File lengths (MBytes):  RWF=     57 Int=      0 D2E=      0 Chk=      2 Scr=      1
 Normal termination of Gaussian 09 at Wed Feb 17 08:27:42 2021.
