 Entering Gaussian System, Link 0=g09
 Initial command:
 /cm/shared/apps/Gaussian09/g09/l1.exe "/local/Gau-49500.inp" -scrdir="/local/"
 Entering Link 1 = /cm/shared/apps/Gaussian09/g09/l1.exe PID=     49501.
  
 Copyright (c) 1988,1990,1992,1993,1995,1998,2003,2009,2013,
            Gaussian, Inc.  All Rights Reserved.
  
 This is part of the Gaussian(R) 09 program.  It is based on
 the Gaussian(R) 03 system (copyright 2003, Gaussian, Inc.),
 the Gaussian(R) 98 system (copyright 1998, Gaussian, Inc.),
 the Gaussian(R) 94 system (copyright 1995, Gaussian, Inc.),
 the Gaussian 92(TM) system (copyright 1992, Gaussian, Inc.),
 the Gaussian 90(TM) system (copyright 1990, Gaussian, Inc.),
 the Gaussian 88(TM) system (copyright 1988, Gaussian, Inc.),
 the Gaussian 86(TM) system (copyright 1986, Carnegie Mellon
 University), and the Gaussian 82(TM) system (copyright 1983,
 Carnegie Mellon University). Gaussian is a federally registered
 trademark of Gaussian, Inc.
  
 This software contains proprietary and confidential information,
 including trade secrets, belonging to Gaussian, Inc.
  
 This software is provided under written license and may be
 used, copied, transmitted, or stored only in accord with that
 written license.
  
 The following legend is applicable only to US Government
 contracts under FAR:
  
                    RESTRICTED RIGHTS LEGEND
  
 Use, reproduction and disclosure by the US Government is
 subject to restrictions as set forth in subparagraphs (a)
 and (c) of the Commercial Computer Software - Restricted
 Rights clause in FAR 52.227-19.
  
 Gaussian, Inc.
 340 Quinnipiac St., Bldg. 40, Wallingford CT 06492
  
  
 ---------------------------------------------------------------
 Warning -- This program may not be used in any manner that
 competes with the business of Gaussian, Inc. or will provide
 assistance to any competitor of Gaussian, Inc.  The licensee
 of this program is prohibited from giving any competitor of
 Gaussian, Inc. access to this program.  By using this program,
 the user acknowledges that Gaussian, Inc. is engaged in the
 business of creating and licensing software in the field of
 computational chemistry and represents and warrants to the
 licensee that it is not a competitor of Gaussian, Inc. and that
 it will not use this program in any manner prohibited above.
 ---------------------------------------------------------------
  

 Cite this work as:
 Gaussian 09, Revision D.01,
 M. J. Frisch, G. W. Trucks, H. B. Schlegel, G. E. Scuseria, 
 M. A. Robb, J. R. Cheeseman, G. Scalmani, V. Barone, B. Mennucci, 
 G. A. Petersson, H. Nakatsuji, M. Caricato, X. Li, H. P. Hratchian, 
 A. F. Izmaylov, J. Bloino, G. Zheng, J. L. Sonnenberg, M. Hada, 
 M. Ehara, K. Toyota, R. Fukuda, J. Hasegawa, M. Ishida, T. Nakajima, 
 Y. Honda, O. Kitao, H. Nakai, T. Vreven, J. A. Montgomery, Jr., 
 J. E. Peralta, F. Ogliaro, M. Bearpark, J. J. Heyd, E. Brothers, 
 K. N. Kudin, V. N. Staroverov, T. Keith, R. Kobayashi, J. Normand, 
 K. Raghavachari, A. Rendell, J. C. Burant, S. S. Iyengar, J. Tomasi, 
 M. Cossi, N. Rega, J. M. Millam, M. Klene, J. E. Knox, J. B. Cross, 
 V. Bakken, C. Adamo, J. Jaramillo, R. Gomperts, R. E. Stratmann, 
 O. Yazyev, A. J. Austin, R. Cammi, C. Pomelli, J. W. Ochterski, 
 R. L. Martin, K. Morokuma, V. G. Zakrzewski, G. A. Voth, 
 P. Salvador, J. J. Dannenberg, S. Dapprich, A. D. Daniels, 
 O. Farkas, J. B. Foresman, J. V. Ortiz, J. Cioslowski, 
 and D. J. Fox, Gaussian, Inc., Wallingford CT, 2013.
 
 ******************************************
 Gaussian 09:  ES64L-G09RevD.01 24-Apr-2013
                17-Feb-2021 
 ******************************************
 %nprocshared=1
 Will use up to    1 processors via shared memory.
 ----------------------------------------------------------------------
 #P pm6 scf=qc opt(calcall, ts, noeigentest, cartesian,maxcycle=100) No
 Symm
 ----------------------------------------------------------------------
 1/5=1,6=100,10=4,11=1,14=-1,18=10,26=1,38=1/1,3;
 2/12=2,15=1,17=6,18=5,29=2,40=1/2;
 3/5=2,16=1,25=1,41=3900000,71=2,140=1/1,2,3;
 4/35=1/1;
 5/5=2,8=3,35=1,38=5/8;
 8/6=4,10=90,11=11/1;
 11/6=1,8=1,9=11,15=111,16=1,31=1/1,2,10;
 10/6=1,31=1/2;
 6/7=2,8=2,9=2,10=2,18=1,28=1/1;
 7/7=1,10=1,25=1,30=1/1,2,3,16;
 1/5=1,6=100,10=4,11=1,14=-1,18=10,26=1/3(3);
 2/15=1,29=1/2;
 7/7=1,8=1,9=1,25=1,30=1,44=-1/16;
 99/12=1/99;
 2/15=1,29=1/2;
 3/5=2,16=1,25=1,41=3900000,71=2,135=20,140=1/1,2,3;
 4/5=5,16=3,35=1/1;
 5/5=2,8=3,35=1,38=5/8;
 8/6=4,10=90,11=11/1;
 11/6=1,8=1,9=11,15=111,16=1,31=1/1,2,10;
 10/6=1,31=1/2;
 7/7=1,10=1,25=1,30=1/1,2,3,16;
 1/5=1,6=100,10=4,11=1,14=-1,18=10,26=1/3(-8);
 2/15=1,29=1/2;
 6/7=2,8=2,9=2,10=2,18=1,19=2,28=1/1;
 7/7=1,8=1,9=1,25=1,30=1,44=-1/16;
 99/12=1/99;
 Leave Link    1 at Wed Feb 17 09:06:30 2021, MaxMem=           0 cpu:         0.0
 (Enter /cm/shared/apps/Gaussian09/g09/l101.exe)
 ------------------------------
 Gaussian input prepared by ASE
 ------------------------------
 Symbolic Z-matrix:
 Charge =  0 Multiplicity = 2
 O                    -2.16985   5.10155   1.01461 
 C                    -1.04125   5.37869   0.67764 
 C                    -0.50074   5.18396  -0.72086 
 C                    -1.57588   4.89617  -1.77298 
 C                    -2.27491   3.54047  -1.5741 
 C                    -1.40761   2.41121  -1.93981 
 H                    -0.44434   2.17898  -1.5477 
 C                     0.65043   3.35467  -4.44559 
 O                     1.12055   2.96493  -5.40664 
 C                    -1.14202   0.94972  -6.55236 
 H                    -0.3149    5.79415   1.39723 
 H                     0.07786   6.08219  -1.02211 
 H                     0.24315   4.3581   -0.7014 
 H                    -2.34408   5.69649  -1.74079 
 H                    -1.12027   4.93733  -2.78357 
 H                    -2.59964   3.44322  -0.50616 
 H                    -3.22042   3.52145  -2.16045 
 H                    -1.8455    0.79099  -7.32653 
 H                    -0.20599   1.39857  -6.76614 
 H                    -1.36705   0.64258  -5.5589 
 O                    -1.29811   0.67265  -3.32645 
 O                    -1.97018   1.61723  -2.94006 
 
 NAtoms=     22 NQM=       22 NQMF=       0 NMMI=      0 NMMIF=      0
                NMic=       0 NMicF=      0.
                    Isotopes and Nuclear Properties:
 (Nuclear quadrupole moments (NQMom) in fm**2, nuclear magnetic moments (NMagM)
  in nuclear magnetons)

  Atom         1           2           3           4           5           6           7           8           9          10
 IAtWgt=          16          12          12          12          12          12           1          12          16          12
 AtmWgt=  15.9949146  12.0000000  12.0000000  12.0000000  12.0000000  12.0000000   1.0078250  12.0000000  15.9949146  12.0000000
 NucSpn=           0           0           0           0           0           0           1           0           0           0
 AtZEff=   0.0000000   0.0000000   0.0000000   0.0000000   0.0000000   0.0000000   0.0000000   0.0000000   0.0000000   0.0000000
 NQMom=    0.0000000   0.0000000   0.0000000   0.0000000   0.0000000   0.0000000   0.0000000   0.0000000   0.0000000   0.0000000
 NMagM=    0.0000000   0.0000000   0.0000000   0.0000000   0.0000000   0.0000000   2.7928460   0.0000000   0.0000000   0.0000000
 AtZNuc=   8.0000000   6.0000000   6.0000000   6.0000000   6.0000000   6.0000000   1.0000000   6.0000000   8.0000000   6.0000000

  Atom        11          12          13          14          15          16          17          18          19          20
 IAtWgt=           1           1           1           1           1           1           1           1           1           1
 AtmWgt=   1.0078250   1.0078250   1.0078250   1.0078250   1.0078250   1.0078250   1.0078250   1.0078250   1.0078250   1.0078250
 NucSpn=           1           1           1           1           1           1           1           1           1           1
 AtZEff=   0.0000000   0.0000000   0.0000000   0.0000000   0.0000000   0.0000000   0.0000000   0.0000000   0.0000000   0.0000000
 NQMom=    0.0000000   0.0000000   0.0000000   0.0000000   0.0000000   0.0000000   0.0000000   0.0000000   0.0000000   0.0000000
 NMagM=    2.7928460   2.7928460   2.7928460   2.7928460   2.7928460   2.7928460   2.7928460   2.7928460   2.7928460   2.7928460
 AtZNuc=   1.0000000   1.0000000   1.0000000   1.0000000   1.0000000   1.0000000   1.0000000   1.0000000   1.0000000   1.0000000

  Atom        21          22
 IAtWgt=          16          16
 AtmWgt=  15.9949146  15.9949146
 NucSpn=           0           0
 AtZEff=   0.0000000   0.0000000
 NQMom=    0.0000000   0.0000000
 NMagM=    0.0000000   0.0000000
 AtZNuc=   8.0000000   8.0000000
 Leave Link  101 at Wed Feb 17 09:06:30 2021, MaxMem=    33554432 cpu:         0.1
 (Enter /cm/shared/apps/Gaussian09/g09/l103.exe)

 GradGradGradGradGradGradGradGradGradGradGradGradGradGradGradGradGradGrad
 Berny optimization.
 Initialization pass.
 No Z-matrix variables, so optimization will use Cartesian coordinates.
 Trust Radius=3.00D-01 FncErr=1.00D-07 GrdErr=1.00D-07
 Number of steps in this run=    100 maximum allowed number of steps=    132.
 Search for a saddle point of order  1.
 GradGradGradGradGradGradGradGradGradGradGradGradGradGradGradGradGradGrad

 Leave Link  103 at Wed Feb 17 09:06:30 2021, MaxMem=    33554432 cpu:         0.0
 (Enter /cm/shared/apps/Gaussian09/g09/l202.exe)
 ---------------------------------------------------------------------------------------------------
                            Z-MATRIX (ANGSTROMS AND DEGREES)
   CD    Cent   Atom    N1       Length/X        N2       Alpha/Y        N3        Beta/Z          J
 ---------------------------------------------------------------------------------------------------
      1      1  O        0  -2.169854          5.101549          1.014606
      2      2  C        0  -1.041254          5.378687          0.677637
      3      3  C        0  -0.500738          5.183965         -0.720864
      4      4  C        0  -1.575879          4.896165         -1.772980
      5      5  C        0  -2.274905          3.540466         -1.574098
      6      6  C        0  -1.407608          2.411206         -1.939813
      7      7  H        0  -0.444338          2.178985         -1.547701
      8      8  C        0   0.650434          3.354667         -4.445590
      9      9  O        0   1.120552          2.964933         -5.406644
     10     10  C        0  -1.142015          0.949723         -6.552357
     11     11  H        0  -0.314901          5.794149          1.397230
     12     12  H        0   0.077860          6.082187         -1.022107
     13     13  H        0   0.243148          4.358095         -0.701395
     14     14  H        0  -2.344079          5.696491         -1.740792
     15     15  H        0  -1.120265          4.937331         -2.783574
     16     16  H        0  -2.599635          3.443216         -0.506156
     17     17  H        0  -3.220415          3.521452         -2.160451
     18     18  H        0  -1.845503          0.790994         -7.326534
     19     19  H        0  -0.205992          1.398565         -6.766135
     20     20  H        0  -1.367049          0.642581         -5.558896
     21     21  O        0  -1.298107          0.672652         -3.326446
     22     22  O        0  -1.970181          1.617226         -2.940062
 ---------------------------------------------------------------------------------------------------
                         Z-Matrix orientation:                         
 ---------------------------------------------------------------------
 Center     Atomic      Atomic             Coordinates (Angstroms)
 Number     Number       Type             X           Y           Z
 ---------------------------------------------------------------------
      1          8           0       -2.169854    5.101549    1.014606
      2          6           0       -1.041254    5.378687    0.677637
      3          6           0       -0.500738    5.183965   -0.720864
      4          6           0       -1.575879    4.896165   -1.772980
      5          6           0       -2.274905    3.540466   -1.574098
      6          6           0       -1.407608    2.411206   -1.939813
      7          1           0       -0.444338    2.178985   -1.547701
      8          6           0        0.650434    3.354667   -4.445590
      9          8           0        1.120552    2.964933   -5.406644
     10          6           0       -1.142015    0.949723   -6.552357
     11          1           0       -0.314901    5.794149    1.397230
     12          1           0        0.077860    6.082187   -1.022107
     13          1           0        0.243148    4.358095   -0.701395
     14          1           0       -2.344079    5.696491   -1.740792
     15          1           0       -1.120265    4.937331   -2.783574
     16          1           0       -2.599635    3.443216   -0.506156
     17          1           0       -3.220415    3.521452   -2.160451
     18          1           0       -1.845503    0.790994   -7.326534
     19          1           0       -0.205992    1.398565   -6.766135
     20          1           0       -1.367049    0.642581   -5.558896
     21          8           0       -1.298107    0.672652   -3.326446
     22          8           0       -1.970181    1.617226   -2.940062
 ---------------------------------------------------------------------
                    Distance matrix (angstroms):
                    1          2          3          4          5
     1  O    0.000000
     2  C    1.209997   0.000000
     3  C    2.409273   1.511912   0.000000
     4  C    2.857556   2.554246   1.531569   0.000000
     5  C    3.024798   3.157730   2.564521   1.538217   0.000000
     6  C    4.067869   3.973815   3.161715   2.496231   1.470095
     7  H    4.252553   3.942909   3.117169   2.951983   2.281513
     8  C    6.389003   5.762458   4.306404   3.804672   4.103364
     9  O    7.524915   6.893337   5.432239   4.919747   5.152550
    10  C    8.692125   8.479309   7.235078   6.213299   5.725247
    11  H    2.016667   1.103636   2.212054   3.527984   4.213015
    12  H    3.187800   2.153244   1.110102   2.169173   3.507213
    13  H    3.052861   2.143135   1.111668   2.178686   2.787601
    14  H    2.824275   2.765348   2.168143   1.109815   2.163566
    15  H    3.943954   3.490132   2.167813   1.109315   2.178820
    16  H    2.290742   2.752447   2.735265   2.182654   1.120450
    17  H    3.698834   4.031477   3.497571   2.178180   1.112727
    18  H    9.394717   9.260696   8.046208   6.911374   6.390188
    19  H    8.837917   8.482262   7.138727   6.248311   5.985431
    20  H    7.983597   7.837805   6.691877   5.698223   5.010045
    21  O    6.262572   6.184288   5.270370   4.508711   3.499888
    22  O    5.274445   5.300872   4.450363   3.502713   2.378564
                    6          7          8          9         10
     6  C    0.000000
     7  H    1.065630   0.000000
     8  C    3.377066   3.313384   0.000000
     9  O    4.326329   4.237692   1.138652   0.000000
    10  C    4.845826   5.200425   3.665392   3.239281   0.000000
    11  H    4.875876   4.664631   6.404802   7.507176   9.346043
    12  H    4.065083   3.972899   4.414458   5.479840   7.642902
    13  H    2.837085   2.436676   3.897659   4.984988   6.911543
    14  H    3.421942   4.002393   4.665531   5.736161   6.864978
    15  H    2.678770   3.097214   2.898706   3.973929   5.486822
    16  H    2.131043   2.707102   5.107830   6.171169   6.700650
    17  H    2.137194   3.143928   4.498127   5.448989   5.497488
    18  H    5.642127   6.106119   4.593687   4.148430   1.058036
    19  H    5.075698   5.281848   3.153527   2.462000   1.059858
    20  H    4.028330   4.393361   3.558806   3.406561   1.063927
    21  O    2.226502   2.482316   3.498928   3.928319   3.241548
    22  O    1.395489   2.140663   3.486107   4.177675   3.765647
                   11         12         13         14         15
    11  H    0.000000
    12  H    2.467877   0.000000
    13  H    2.603439   1.761440   0.000000
    14  H    3.738219   2.555593   3.092797   0.000000
    15  H    4.343025   2.418463   2.555363   1.778044   0.000000
    16  H    3.790748   3.794648   2.992747   2.582031   3.099604
    17  H    5.124867   4.328026   3.850336   2.382199   2.608376
    18  H   10.172431   8.452328   7.808914   7.450704   6.193268
    19  H    9.272192   7.416923   6.763255   6.949652   5.405511
    20  H    8.719711   7.229075   6.324009   6.408940   5.119394
    21  O    7.036302   6.038736   4.780047   5.370970   4.302769
    22  O    6.244897   5.273414   4.174065   4.268308   3.430735
                   16         17         18         19         20
    16  H    0.000000
    17  H    1.768666   0.000000
    18  H    7.356667   6.002849   0.000000
    19  H    7.006958   5.899637   1.836079   0.000000
    20  H    5.907030   4.824136   1.837250   1.837659   0.000000
    21  O    4.162215   3.629115   4.039103   3.681185   2.233717
    22  O    3.107145   2.407687   4.465349   4.218887   2.858670
                   21         22
    21  O    0.000000
    22  O    1.221964   0.000000
 Symmetry turned off by external request.
 Stoichiometry    C7H11O4(2)
 Framework group  C1[X(C7H11O4)]
 Deg. of freedom    60
 Full point group                 C1      NOp   1
 Rotational constants (GHZ):      1.6052869      0.4138125      0.3529230
 Leave Link  202 at Wed Feb 17 09:06:30 2021, MaxMem=    33554432 cpu:         0.0
 (Enter /cm/shared/apps/Gaussian09/g09/l301.exe)
 Standard basis: VSTO-6G (5D, 7F)
 Ernie: Thresh=  0.10000D-02 Tol=  0.10000D-05 Strict=F.
  NNHCO=     0 NNPyr=     0 NCTC=     0               EPep=         0.000000000
    EC=       275.325259896  ECS=         4.389066508   EG=         0.309089504
   EHC=         0.002135028  EAt=       -76.388488019  AtH=         3.199295150
 EPDDG=         0.000000000  ECC=       280.025550936 EAtT=        79.587783169
    55 basis functions,   330 primitive gaussians,    55 cartesian basis functions
    32 alpha electrons       31 beta electrons
       nuclear repulsion energy       359.6133341044 Hartrees.
 IExCor=    0 DFT=F Ex=HF Corr=None ExCW=0 ScaHFX=  1.000000
 ScaDFX=  1.000000  1.000000  1.000000  1.000000 ScalE2=  1.000000  1.000000
 IRadAn=      0 IRanWt=     -1 IRanGd=            0 ICorTp=0 IEmpDi=  4
 Integral buffers will be    131072 words long.
 Regular integral format.
 Two-electron integral symmetry is turned off.
 Leave Link  301 at Wed Feb 17 09:06:30 2021, MaxMem=    33554432 cpu:         0.0
 (Enter /cm/shared/apps/Gaussian09/g09/l302.exe)
 Do NDO integrals.
 NPDir=0 NMtPBC=     1 NCelOv=     1 NCel=       1 NClECP=     1 NCelD=      1
         NCelK=      1 NCelE2=     1 NClLst=     1 CellRange=     0.0.
 One-electron integrals computed using PRISM.
 NBasis=    55 RedAO= F EigKep=  0.00D+00  NBF=    55
 NBsUse=    55 1.00D-04 EigRej=  0.00D+00 NBFU=    55
 Leave Link  302 at Wed Feb 17 09:06:31 2021, MaxMem=    33554432 cpu:         0.0
 (Enter /cm/shared/apps/Gaussian09/g09/l303.exe)
 DipDrv:  MaxL=1.
 Leave Link  303 at Wed Feb 17 09:06:31 2021, MaxMem=    33554432 cpu:         0.0
 (Enter /cm/shared/apps/Gaussian09/g09/l401.exe)
 Simple Huckel Guess.
 JPrj=0 DoOrth=F DoCkMO=F.
 Initial guess <Sx>= 0.0000 <Sy>= 0.0000 <Sz>= 0.5000 <S**2>= 0.7500 S= 0.5000
 Leave Link  401 at Wed Feb 17 09:06:31 2021, MaxMem=    33554432 cpu:         0.0
 (Enter /cm/shared/apps/Gaussian09/g09/l508.exe)
 Direct SCF.
 Tight linear equation convergence will be used.
 UPM6 wavefunction.
 Quadratic Convergence SCF Method.
 Line search only if initial step raises energy.
 Two-electron integral symmetry not used.
 ReadGW:  IGet=1 IStart=       59293 Next=       59293 LGW=           0.
 Keep J ints in memory in canonical form, NReq=909807.
 FoFCou: FMM=F IPFlag=           0 FMFlag=           0 FMFlg1=           0
         NFxFlg=           0 DoJE=F BraDBF=F KetDBF=F FulRan=T
         wScrn=  0.000000 ICntrl=     600 IOpCl=  2 I1Cent=           0 NGrid=           0
         NMat0=    1 NMatS0=    121 NMatT0=    0 NMatD0=    1 NMtDS0=    0 NMtDT0=    0
 Symmetry not used in FoFCou.
 Iteration   1 EE= 0.631954553842888                                    Grad=5.504D-01 Max rot=    6.8766 deg.
 Gradient too large for Newton-Raphson -- use scaled steepest descent instead.
 Alpha Gap=     0.229 HL deriv= 1.00D-03
  Beta Gap=     0.414 HL deriv= 4.14D-03
     ILin= 1 X=0.000D+00 Y= 6.319545538429D-01 DE= 0.00D+00 F= -7.57D-01
     ILin= 2 X=3.000D-01 Y= 4.238482875678D-01 DE=-2.08D-01 F= -6.28D-01
     ILin= 3 X=4.000D-01 Y= 3.633513222919D-01 DE=-2.69D-01 F= -5.82D-01
     ILin= 4 X=6.000D-01 Y= 2.567727028822D-01 DE=-3.75D-01 F= -4.83D-01
     ILin= 5 X=1.000D+00 Y= 1.064811674364D-01 DE=-5.25D-01 F= -2.64D-01
     ILin= 6 X=1.400D+00 Y= 4.940460557503D-02 DE=-5.83D-01 F= -1.77D-02
     ILin= 7 X=2.100D+00 Y= 2.001574952783D-01 DE=-4.32D-01 F=  4.54D-01
     An  expanding polynomial of degree  7 produced  1.4274
     Minimum is close to point  6 DX=  2.74D-02 DF= -2.43D-04 DXR=  1.92D-02 DFR=  4.17D-04 which will be used.
 Iteration   2 EE= 0.494046055750346E-01 Delta-E=       -0.582549948268 Grad=1.539D-01 Max rot=    1.7170 deg.
 Gradient too large for Newton-Raphson -- use scaled steepest descent instead.
 Alpha Gap=     0.311 HL deriv= 3.95D-04
  Beta Gap=     0.398 HL deriv= 1.67D-04
     ILin= 1 X=0.000D+00 Y= 4.940460557503D-02 DE= 0.00D+00 F= -5.21D-02
     ILin= 2 X=7.000D-01 Y= 2.198440546977D-02 DE=-2.74D-02 F= -2.61D-02
     ILin= 3 X=1.200D+00 Y= 1.366794228147D-02 DE=-3.57D-02 F= -7.10D-03
     ILin= 4 X=2.200D+00 Y= 2.594760615563D-02 DE=-2.35D-02 F=  3.18D-02
     An  expanding polynomial of degree  4 produced  1.3848
 Iteration   3 EE= 0.130132894411190E-01 Delta-E=       -0.036391316134 Grad=4.803D-02 Max rot=    0.6869 deg.
 Gradient too large for Newton-Raphson -- use scaled steepest descent instead.
 Alpha Gap=     0.321 HL deriv= 1.62D-04
  Beta Gap=     0.390 HL deriv= 1.80D-04
     ILin= 1 X=0.000D+00 Y= 1.301328944112D-02 DE= 0.00D+00 F= -5.86D-03
     ILin= 2 X=1.400D+00 Y= 8.591961150728D-03 DE=-4.42D-03 F= -4.39D-04
     Reject lnstep minimum 1.439D+00 FVal= 8.585794275899D-03 Lims=  0.00D+00  1.40D+00
     ILin= 3 X=2.800D+00 Y= 1.183941921573D-02 DE=-1.17D-03 F=  5.10D-03
     An  expanding polynomial of degree  3 produced  1.5071
     Minimum is close to point  2 DX=  1.07D-01 DF= -2.25D-05 DXR=  7.11D-02 DFR=  5.08D-03 which will be used.
 Iteration   4 EE= 0.859196115072791E-02 Delta-E=       -0.004421328290 Grad=2.225D-02 Max rot=    0.3146 deg.
 Gradient too large for Newton-Raphson -- use scaled steepest descent instead.
 Alpha Gap=     0.324 HL deriv= 8.81D-07
  Beta Gap=     0.390 HL deriv= 1.45D-05
     ILin= 1 X=0.000D+00 Y= 8.591961150728D-03 DE= 0.00D+00 F= -1.35D-03
     ILin= 2 X=1.400D+00 Y= 7.469443526702D-03 DE=-1.12D-03 F= -2.58D-04
     ILin= 3 X=2.900D+00 Y= 7.954667336094D-03 DE=-6.37D-04 F=  9.04D-04
     An  expanding polynomial of degree  3 produced  1.7332
 Iteration   5 EE= 0.742662840775665E-02 Delta-E=       -0.001165332743 Grad=1.519D-02 Max rot=    0.1958 deg.
 Gradient too large for Newton-Raphson -- use scaled steepest descent instead.
 Alpha Gap=     0.323 HL deriv= 1.09D-05
  Beta Gap=     0.390 HL deriv= 1.30D-05
     ILin= 1 X=0.000D+00 Y= 7.426628407757D-03 DE= 0.00D+00 F= -5.83D-04
     ILin= 2 X=1.600D+00 Y= 7.075728062830D-03 DE=-3.51D-04 F=  1.45D-04
     Accept linear search using points  1 and  2.
     An  expanding polynomial of degree  2 produced  1.4519
 Iteration   6 EE= 0.705926711270877E-02 Delta-E=       -0.000367361295 Grad=9.311D-03 Max rot=    0.0916 deg.
 QCNR:  CnvC1=3.85D-09 CnvC2=3.85D-08
 LinEq1:  Iter=  0 NonCon=     1 RMS=3.65D-04 Max=7.69D-03 NDo=     1
 AX will form     1 AO Fock derivatives at one time.
 LinEq1:  Iter=  1 NonCon=     1 RMS=8.87D-05 Max=1.18D-03 NDo=     1
 LinEq1:  Iter=  2 NonCon=     1 RMS=1.43D-05 Max=3.62D-04 NDo=     1
 LinEq1:  Iter=  3 NonCon=     1 RMS=3.74D-06 Max=5.34D-05 NDo=     1
 LinEq1:  Iter=  4 NonCon=     1 RMS=1.50D-06 Max=3.47D-05 NDo=     1
 LinEq1:  Iter=  5 NonCon=     1 RMS=5.60D-07 Max=1.13D-05 NDo=     1
 LinEq1:  Iter=  6 NonCon=     1 RMS=8.99D-08 Max=8.63D-07 NDo=     1
 LinEq1:  Iter=  7 NonCon=     1 RMS=1.71D-08 Max=2.52D-07 NDo=     1
 LinEq1:  Iter=  8 NonCon=     1 RMS=4.01D-09 Max=5.34D-08 NDo=     1
 LinEq1:  Iter=  9 NonCon=     0 RMS=1.03D-09 Max=1.54D-08 NDo=     1
 Linear equations converged to 3.847D-09 3.847D-08 after     9 iterations.
 Angle between quadratic step and gradient=  48.67 degrees.
     ILin= 1 X=0.000D+00 Y= 7.059267112709D-03 DE= 0.00D+00 F= -4.78D-04
     ILin= 2 X=1.000D+00 Y= 6.819555435072D-03 DE=-2.40D-04 F= -2.15D-06
     Reject lnstep minimum 1.005D+00 FVal= 6.819550574656D-03 Lims=  0.00D+00  1.00D+00
     ILin= 3 X=2.000D+00 Y= 7.053698935977D-03 DE=-5.57D-06 F=  4.70D-04
     An  expanding polynomial of degree  3 produced  1.0059
     Minimum is close to point  2 DX=  5.88D-03 DF= -8.18D-09 DXR=  5.84D-03 DFR=  3.41D-05 which will be used.
 Iteration   7 EE= 0.681955543507229E-02 Delta-E=       -0.000239711678 Grad=1.138D-04 Max rot=    0.0025 deg.
 QCNR:  CnvC1=1.14D-09 CnvC2=1.14D-08
 LinEq1:  Iter=  0 NonCon=     1 RMS=5.95D-06 Max=1.39D-04 NDo=     1
 LinEq1:  Iter=  1 NonCon=     1 RMS=1.47D-06 Max=2.66D-05 NDo=     1
 LinEq1:  Iter=  2 NonCon=     1 RMS=3.23D-07 Max=4.17D-06 NDo=     1
 LinEq1:  Iter=  3 NonCon=     1 RMS=9.51D-08 Max=2.05D-06 NDo=     1
 LinEq1:  Iter=  4 NonCon=     1 RMS=3.24D-08 Max=5.59D-07 NDo=     1
 LinEq1:  Iter=  5 NonCon=     1 RMS=9.27D-09 Max=1.25D-07 NDo=     1
 LinEq1:  Iter=  6 NonCon=     1 RMS=2.66D-09 Max=3.43D-08 NDo=     1
 LinEq1:  Iter=  7 NonCon=     0 RMS=4.74D-10 Max=5.26D-09 NDo=     1
 Linear equations converged to 1.138D-09 1.138D-08 after     7 iterations.
 Angle between quadratic step and gradient=  48.61 degrees.
     ILin= 1 X=0.000D+00 Y= 6.819555435072D-03 DE= 0.00D+00 F= -5.41D-08
     ILin= 2 X=1.000D+00 Y= 6.819528362200D-03 DE=-2.71D-08 F= -6.50D-11
     Reject lnstep minimum 1.001D+00 FVal= 6.819528362161D-03 Lims=  0.00D+00  1.00D+00
     ILin= 3 X=2.000D+00 Y= 6.819555297056D-03 DE=-1.38D-10 F=  5.39D-08
     An  expanding polynomial of degree  3 produced  1.0013
     Minimum is close to point  2 DX=  1.28D-03 DF= -4.41D-14 DXR=  1.28D-03 DFR=  1.63D-06 which will be used.
 Iteration   8 EE= 0.681952836220034E-02 Delta-E=       -0.000000027073 Grad=5.282D-06 Max rot=    0.0001 deg.
 QCNR:  CnvC1=5.28D-11 CnvC2=5.28D-10
 LinEq1:  Iter=  0 NonCon=     1 RMS=1.81D-07 Max=2.00D-06 NDo=     1
 LinEq1:  Iter=  1 NonCon=     1 RMS=4.55D-08 Max=6.03D-07 NDo=     1
 LinEq1:  Iter=  2 NonCon=     1 RMS=1.34D-08 Max=2.42D-07 NDo=     1
 LinEq1:  Iter=  3 NonCon=     1 RMS=4.33D-09 Max=9.79D-08 NDo=     1
 LinEq1:  Iter=  4 NonCon=     1 RMS=1.81D-09 Max=4.66D-08 NDo=     1
 LinEq1:  Iter=  5 NonCon=     1 RMS=8.01D-10 Max=1.83D-08 NDo=     1
 LinEq1:  Iter=  6 NonCon=     1 RMS=1.72D-10 Max=2.09D-09 NDo=     1
 LinEq1:  Iter=  7 NonCon=     0 RMS=3.77D-11 Max=4.69D-10 NDo=     1
 Linear equations converged to 5.282D-11 5.282D-10 after     7 iterations.
 Angle between quadratic step and gradient=  57.34 degrees.
     ILin= 1 X=0.000D+00 Y= 6.819528362200D-03 DE= 0.00D+00 F= -1.16D-10
     ILin= 2 X=1.000D+00 Y= 6.819528303254D-03 DE=-5.89D-11
 Iteration   9 EE= 0.681952830325372E-02 Delta-E=       -0.000000000059 Grad=3.217D-07 Max rot=    0.0000 deg.
 Rotation gradient small -- convergence achieved.
 SCF Done:  E(UPM6) =  0.681952830325E-02 a.u. after    9 cycles
            Convg  =    0.3217D-06                    46 Fock formations.
              S**2 =  0.7539                  -V/T =  1.0002
 <Sx>= 0.0000 <Sy>= 0.0000 <Sz>= 0.5000 <S**2>= 0.7539 S= 0.5020
 <L.S>= 0.000000000000E+00
 Annihilation of the first spin contaminant:
 S**2 before annihilation     0.7539,   after     0.7500
 Leave Link  508 at Wed Feb 17 09:06:31 2021, MaxMem=    33554432 cpu:         0.1
 (Enter /cm/shared/apps/Gaussian09/g09/l801.exe)
 Range of M.O.s used for correlation:     1    55
 NBasis=    55 NAE=    32 NBE=    31 NFC=     0 NFV=     0
 NROrb=     55 NOA=    32 NOB=    31 NVA=    23 NVB=    24
 Leave Link  801 at Wed Feb 17 09:06:31 2021, MaxMem=    33554432 cpu:         0.0
 (Enter /cm/shared/apps/Gaussian09/g09/l1101.exe)
 Using compressed storage, NAtomX=    22.
 Will process     23 centers per pass.
 Leave Link 1101 at Wed Feb 17 09:06:31 2021, MaxMem=    33554432 cpu:         0.1
 (Enter /cm/shared/apps/Gaussian09/g09/l1102.exe)
 Symmetrizing basis deriv contribution to polar:
 IMax=3 JMax=2 DiffMx= 0.00D+00
 Leave Link 1102 at Wed Feb 17 09:06:31 2021, MaxMem=    33554432 cpu:         0.0
 (Enter /cm/shared/apps/Gaussian09/g09/l1110.exe)
 Forming Gx(P) for the SCF density, NAtomX=    22.
 Integral derivatives from FoFJK, PRISM(SPDF).
 Do as many integral derivatives as possible in FoFJK.
 G2DrvN: MDV=      33495261.
 G2DrvN: will do    23 centers at a time, making    1 passes.
 Calling FoFCou, ICntrl=  3107 FMM=F I1Cent=   0 AccDes= 0.00D+00.
 FoFJK:  IHMeth=40 ICntrl=    3107 DoSepK=F KAlg= 0 I1Cent=   0 FoldK=F
 IRaf=         0 NMat=   1 IRICut=       1 DoRegI=T DoRafI=F ISym2E= 0.
 FoFCou: FMM=F IPFlag=           0 FMFlag=      100000 FMFlg1=           0
         NFxFlg=           0 DoJE=F BraDBF=F KetDBF=F FulRan=T
         wScrn=  0.000000 ICntrl=    3107 IOpCl=  1 I1Cent=           0 NGrid=           0
         NMat0=    1 NMatS0=      1 NMatT0=    0 NMatD0=    1 NMtDS0=    0 NMtDT0=    0
 Symmetry not used in FoFCou.
 End of G2Drv F.D. properties file   721 does not exist.
 End of G2Drv F.D. properties file   722 does not exist.
 End of G2Drv F.D. properties file   788 does not exist.
 Leave Link 1110 at Wed Feb 17 09:06:31 2021, MaxMem=    33554432 cpu:         0.0
 (Enter /cm/shared/apps/Gaussian09/g09/l1002.exe)
 Minotr:  UHF open shell wavefunction.
          IDoAtm=1111111111111111111111
          Direct CPHF calculation.
          Differentiating once with respect to electric field.
                with respect to dipole field.
          Differentiating once with respect to nuclear coordinates.
          Electric field/nuclear overlap derivatives assumed to be zero.
          Requested convergence is 1.0D-08 RMS, and 1.0D-07 maximum.
          NewPWx=T KeepS1=F KeepF1=F KeepIn=T MapXYZ=F SortEE=F KeepMc=T.
          MDV=      33495207 using IRadAn=       2.
 Keep J ints in memory in canonical form, NReq=889842.
 FoFCou: FMM=F IPFlag=           0 FMFlag=           0 FMFlg1=           0
         NFxFlg=           0 DoJE=F BraDBF=F KetDBF=F FulRan=T
         wScrn=  0.000000 ICntrl=     600 IOpCl=  2 I1Cent=           0 NGrid=           0
         NMat0=    1 NMatS0=    121 NMatT0=    0 NMatD0=    1 NMtDS0=    0 NMtDT0=    0
 Symmetry not used in FoFCou.
          Solving linear equations separately, MaxMat=       0.
          There are    69 degrees of freedom in the 1st order CPHF.  IDoFFX=5 NUNeed=    69.
 LinEq1:  Iter=  0 NonCon=    69 RMS=2.09D-01 Max=4.25D+00 NDo=    69
 AX will form    69 AO Fock derivatives at one time.
 LinEq1:  Iter=  1 NonCon=    69 RMS=4.63D-02 Max=3.81D-01 NDo=    69
 LinEq1:  Iter=  2 NonCon=    69 RMS=1.08D-02 Max=1.41D-01 NDo=    69
 LinEq1:  Iter=  3 NonCon=    69 RMS=1.87D-03 Max=1.92D-02 NDo=    69
 LinEq1:  Iter=  4 NonCon=    69 RMS=4.07D-04 Max=3.46D-03 NDo=    69
 LinEq1:  Iter=  5 NonCon=    69 RMS=6.04D-05 Max=6.68D-04 NDo=    69
 LinEq1:  Iter=  6 NonCon=    69 RMS=1.18D-05 Max=2.28D-04 NDo=    69
 LinEq1:  Iter=  7 NonCon=    66 RMS=4.58D-06 Max=8.56D-05 NDo=    69
 LinEq1:  Iter=  8 NonCon=    32 RMS=1.24D-06 Max=1.53D-05 NDo=    69
 LinEq1:  Iter=  9 NonCon=    11 RMS=2.83D-07 Max=4.29D-06 NDo=    69
 LinEq1:  Iter= 10 NonCon=     3 RMS=5.84D-08 Max=9.49D-07 NDo=    69
 LinEq1:  Iter= 11 NonCon=     3 RMS=1.45D-08 Max=2.60D-07 NDo=    69
 LinEq1:  Iter= 12 NonCon=     0 RMS=3.01D-09 Max=4.36D-08 NDo=    69
 Linear equations converged to 1.000D-08 1.000D-07 after    12 iterations.
 FullF1:  Do perturbations    1 to     3.
 Isotropic polarizability for W=    0.000000       72.72 Bohr**3.
 End of Minotr F.D. properties file   721 does not exist.
 End of Minotr F.D. properties file   722 does not exist.
 End of Minotr F.D. properties file   788 does not exist.
 Leave Link 1002 at Wed Feb 17 09:06:31 2021, MaxMem=    33554432 cpu:         0.5
 (Enter /cm/shared/apps/Gaussian09/g09/l601.exe)
 Copying SCF densities to generalized density rwf, IOpCl= 1 IROHF=0.

 **********************************************************************

            Population analysis using the SCF density.

 **********************************************************************

 Alpha  occ. eigenvalues --   -1.24882  -1.22976  -1.18596  -1.08437  -1.03724
 Alpha  occ. eigenvalues --   -0.96519  -0.87618  -0.86010  -0.80559  -0.74148
 Alpha  occ. eigenvalues --   -0.73779  -0.68566  -0.65202  -0.61945  -0.60857
 Alpha  occ. eigenvalues --   -0.59465  -0.58038  -0.57879  -0.55894  -0.54957
 Alpha  occ. eigenvalues --   -0.53612  -0.52121  -0.51497  -0.50949  -0.47894
 Alpha  occ. eigenvalues --   -0.47582  -0.46486  -0.44390  -0.38542  -0.36195
 Alpha  occ. eigenvalues --   -0.35609  -0.33536
 Alpha virt. eigenvalues --   -0.03201  -0.00012   0.03042   0.04162   0.04262
 Alpha virt. eigenvalues --    0.10032   0.11380   0.12007   0.13392   0.13983
 Alpha virt. eigenvalues --    0.14823   0.16251   0.17011   0.17636   0.18556
 Alpha virt. eigenvalues --    0.19039   0.19479   0.19839   0.20904   0.21129
 Alpha virt. eigenvalues --    0.24274   0.24618   0.25671
  Beta  occ. eigenvalues --   -1.24881  -1.22980  -1.18596  -1.08437  -1.03725
  Beta  occ. eigenvalues --   -0.96519  -0.87618  -0.84510  -0.80558  -0.74147
  Beta  occ. eigenvalues --   -0.73779  -0.68566  -0.65201  -0.61938  -0.60860
  Beta  occ. eigenvalues --   -0.59462  -0.58009  -0.57877  -0.55887  -0.54956
  Beta  occ. eigenvalues --   -0.53595  -0.52104  -0.50263  -0.49726  -0.47890
  Beta  occ. eigenvalues --   -0.47578  -0.46486  -0.44384  -0.38542  -0.36181
  Beta  occ. eigenvalues --   -0.33530
  Beta virt. eigenvalues --   -0.03200  -0.00012   0.03043   0.04160   0.04237
  Beta virt. eigenvalues --    0.04281   0.10032   0.11380   0.12007   0.13391
  Beta virt. eigenvalues --    0.13982   0.14823   0.16251   0.17011   0.17636
  Beta virt. eigenvalues --    0.18557   0.19045   0.19480   0.19839   0.20905
  Beta virt. eigenvalues --    0.21129   0.25140   0.25480   0.26599
          Condensed to atoms (all electrons):
               1          2          3          4          5          6
     1  O    6.460832   0.000000   0.000000   0.000000   0.000000   0.000000
     2  C    0.000000   3.589112   0.000000   0.000000   0.000000   0.000000
     3  C    0.000000   0.000000   4.449580   0.000000   0.000000   0.000000
     4  C    0.000000   0.000000   0.000000   4.184583   0.000000   0.000000
     5  C    0.000000   0.000000   0.000000   0.000000   4.320504   0.000000
     6  C    0.000000   0.000000   0.000000   0.000000   0.000000   4.077809
     7  H    0.000000   0.000000   0.000000   0.000000   0.000000   0.000000
     8  C    0.000000   0.000000   0.000000   0.000000   0.000000   0.000000
     9  O    0.000000   0.000000   0.000000   0.000000   0.000000   0.000000
    10  C    0.000000   0.000000   0.000000   0.000000   0.000000   0.000000
    11  H    0.000000   0.000000   0.000000   0.000000   0.000000   0.000000
    12  H    0.000000   0.000000   0.000000   0.000000   0.000000   0.000000
    13  H    0.000000   0.000000   0.000000   0.000000   0.000000   0.000000
    14  H    0.000000   0.000000   0.000000   0.000000   0.000000   0.000000
    15  H    0.000000   0.000000   0.000000   0.000000   0.000000   0.000000
    16  H    0.000000   0.000000   0.000000   0.000000   0.000000   0.000000
    17  H    0.000000   0.000000   0.000000   0.000000   0.000000   0.000000
    18  H    0.000000   0.000000   0.000000   0.000000   0.000000   0.000000
    19  H    0.000000   0.000000   0.000000   0.000000   0.000000   0.000000
    20  H    0.000000   0.000000   0.000000   0.000000   0.000000   0.000000
    21  O    0.000000   0.000000   0.000000   0.000000   0.000000   0.000000
    22  O    0.000000   0.000000   0.000000   0.000000   0.000000   0.000000
               7          8          9         10         11         12
     1  O    0.000000   0.000000   0.000000   0.000000   0.000000   0.000000
     2  C    0.000000   0.000000   0.000000   0.000000   0.000000   0.000000
     3  C    0.000000   0.000000   0.000000   0.000000   0.000000   0.000000
     4  C    0.000000   0.000000   0.000000   0.000000   0.000000   0.000000
     5  C    0.000000   0.000000   0.000000   0.000000   0.000000   0.000000
     6  C    0.000000   0.000000   0.000000   0.000000   0.000000   0.000000
     7  H    0.832909   0.000000   0.000000   0.000000   0.000000   0.000000
     8  C    0.000000   3.694025   0.000000   0.000000   0.000000   0.000000
     9  O    0.000000   0.000000   6.305450   0.000000   0.000000   0.000000
    10  C    0.000000   0.000000   0.000000   4.458857   0.000000   0.000000
    11  H    0.000000   0.000000   0.000000   0.000000   0.907995   0.000000
    12  H    0.000000   0.000000   0.000000   0.000000   0.000000   0.827170
    13  H    0.000000   0.000000   0.000000   0.000000   0.000000   0.000000
    14  H    0.000000   0.000000   0.000000   0.000000   0.000000   0.000000
    15  H    0.000000   0.000000   0.000000   0.000000   0.000000   0.000000
    16  H    0.000000   0.000000   0.000000   0.000000   0.000000   0.000000
    17  H    0.000000   0.000000   0.000000   0.000000   0.000000   0.000000
    18  H    0.000000   0.000000   0.000000   0.000000   0.000000   0.000000
    19  H    0.000000   0.000000   0.000000   0.000000   0.000000   0.000000
    20  H    0.000000   0.000000   0.000000   0.000000   0.000000   0.000000
    21  O    0.000000   0.000000   0.000000   0.000000   0.000000   0.000000
    22  O    0.000000   0.000000   0.000000   0.000000   0.000000   0.000000
              13         14         15         16         17         18
     1  O    0.000000   0.000000   0.000000   0.000000   0.000000   0.000000
     2  C    0.000000   0.000000   0.000000   0.000000   0.000000   0.000000
     3  C    0.000000   0.000000   0.000000   0.000000   0.000000   0.000000
     4  C    0.000000   0.000000   0.000000   0.000000   0.000000   0.000000
     5  C    0.000000   0.000000   0.000000   0.000000   0.000000   0.000000
     6  C    0.000000   0.000000   0.000000   0.000000   0.000000   0.000000
     7  H    0.000000   0.000000   0.000000   0.000000   0.000000   0.000000
     8  C    0.000000   0.000000   0.000000   0.000000   0.000000   0.000000
     9  O    0.000000   0.000000   0.000000   0.000000   0.000000   0.000000
    10  C    0.000000   0.000000   0.000000   0.000000   0.000000   0.000000
    11  H    0.000000   0.000000   0.000000   0.000000   0.000000   0.000000
    12  H    0.000000   0.000000   0.000000   0.000000   0.000000   0.000000
    13  H    0.820763   0.000000   0.000000   0.000000   0.000000   0.000000
    14  H    0.000000   0.854911   0.000000   0.000000   0.000000   0.000000
    15  H    0.000000   0.000000   0.858299   0.000000   0.000000   0.000000
    16  H    0.000000   0.000000   0.000000   0.801078   0.000000   0.000000
    17  H    0.000000   0.000000   0.000000   0.000000   0.836137   0.000000
    18  H    0.000000   0.000000   0.000000   0.000000   0.000000   0.858493
    19  H    0.000000   0.000000   0.000000   0.000000   0.000000   0.000000
    20  H    0.000000   0.000000   0.000000   0.000000   0.000000   0.000000
    21  O    0.000000   0.000000   0.000000   0.000000   0.000000   0.000000
    22  O    0.000000   0.000000   0.000000   0.000000   0.000000   0.000000
              19         20         21         22
     1  O    0.000000   0.000000   0.000000   0.000000
     2  C    0.000000   0.000000   0.000000   0.000000
     3  C    0.000000   0.000000   0.000000   0.000000
     4  C    0.000000   0.000000   0.000000   0.000000
     5  C    0.000000   0.000000   0.000000   0.000000
     6  C    0.000000   0.000000   0.000000   0.000000
     7  H    0.000000   0.000000   0.000000   0.000000
     8  C    0.000000   0.000000   0.000000   0.000000
     9  O    0.000000   0.000000   0.000000   0.000000
    10  C    0.000000   0.000000   0.000000   0.000000
    11  H    0.000000   0.000000   0.000000   0.000000
    12  H    0.000000   0.000000   0.000000   0.000000
    13  H    0.000000   0.000000   0.000000   0.000000
    14  H    0.000000   0.000000   0.000000   0.000000
    15  H    0.000000   0.000000   0.000000   0.000000
    16  H    0.000000   0.000000   0.000000   0.000000
    17  H    0.000000   0.000000   0.000000   0.000000
    18  H    0.000000   0.000000   0.000000   0.000000
    19  H    0.853540   0.000000   0.000000   0.000000
    20  H    0.000000   0.831041   0.000000   0.000000
    21  O    0.000000   0.000000   6.473415   0.000000
    22  O    0.000000   0.000000   0.000000   5.703499
          Atomic-Atomic Spin Densities.
               1          2          3          4          5          6
     1  O    0.000000   0.000000   0.000000   0.000000   0.000000   0.000000
     2  C    0.000000   0.000000   0.000000   0.000000   0.000000   0.000000
     3  C    0.000000   0.000000   0.000001   0.000000   0.000000   0.000000
     4  C    0.000000   0.000000   0.000000  -0.000019   0.000000   0.000000
     5  C    0.000000   0.000000   0.000000   0.000000  -0.000025   0.000000
     6  C    0.000000   0.000000   0.000000   0.000000   0.000000   0.000148
     7  H    0.000000   0.000000   0.000000   0.000000   0.000000   0.000000
     8  C    0.000000   0.000000   0.000000   0.000000   0.000000   0.000000
     9  O    0.000000   0.000000   0.000000   0.000000   0.000000   0.000000
    10  C    0.000000   0.000000   0.000000   0.000000   0.000000   0.000000
    11  H    0.000000   0.000000   0.000000   0.000000   0.000000   0.000000
    12  H    0.000000   0.000000   0.000000   0.000000   0.000000   0.000000
    13  H    0.000000   0.000000   0.000000   0.000000   0.000000   0.000000
    14  H    0.000000   0.000000   0.000000   0.000000   0.000000   0.000000
    15  H    0.000000   0.000000   0.000000   0.000000   0.000000   0.000000
    16  H    0.000000   0.000000   0.000000   0.000000   0.000000   0.000000
    17  H    0.000000   0.000000   0.000000   0.000000   0.000000   0.000000
    18  H    0.000000   0.000000   0.000000   0.000000   0.000000   0.000000
    19  H    0.000000   0.000000   0.000000   0.000000   0.000000   0.000000
    20  H    0.000000   0.000000   0.000000   0.000000   0.000000   0.000000
    21  O    0.000000   0.000000   0.000000   0.000000   0.000000   0.000000
    22  O    0.000000   0.000000   0.000000   0.000000   0.000000   0.000000
               7          8          9         10         11         12
     1  O    0.000000   0.000000   0.000000   0.000000   0.000000   0.000000
     2  C    0.000000   0.000000   0.000000   0.000000   0.000000   0.000000
     3  C    0.000000   0.000000   0.000000   0.000000   0.000000   0.000000
     4  C    0.000000   0.000000   0.000000   0.000000   0.000000   0.000000
     5  C    0.000000   0.000000   0.000000   0.000000   0.000000   0.000000
     6  C    0.000000   0.000000   0.000000   0.000000   0.000000   0.000000
     7  H   -0.000003   0.000000   0.000000   0.000000   0.000000   0.000000
     8  C    0.000000  -0.000099   0.000000   0.000000   0.000000   0.000000
     9  O    0.000000   0.000000   0.000077   0.000000   0.000000   0.000000
    10  C    0.000000   0.000000   0.000000   1.104887   0.000000   0.000000
    11  H    0.000000   0.000000   0.000000   0.000000   0.000000   0.000000
    12  H    0.000000   0.000000   0.000000   0.000000   0.000000   0.000000
    13  H    0.000000   0.000000   0.000000   0.000000   0.000000   0.000000
    14  H    0.000000   0.000000   0.000000   0.000000   0.000000   0.000000
    15  H    0.000000   0.000000   0.000000   0.000000   0.000000   0.000000
    16  H    0.000000   0.000000   0.000000   0.000000   0.000000   0.000000
    17  H    0.000000   0.000000   0.000000   0.000000   0.000000   0.000000
    18  H    0.000000   0.000000   0.000000   0.000000   0.000000   0.000000
    19  H    0.000000   0.000000   0.000000   0.000000   0.000000   0.000000
    20  H    0.000000   0.000000   0.000000   0.000000   0.000000   0.000000
    21  O    0.000000   0.000000   0.000000   0.000000   0.000000   0.000000
    22  O    0.000000   0.000000   0.000000   0.000000   0.000000   0.000000
              13         14         15         16         17         18
     1  O    0.000000   0.000000   0.000000   0.000000   0.000000   0.000000
     2  C    0.000000   0.000000   0.000000   0.000000   0.000000   0.000000
     3  C    0.000000   0.000000   0.000000   0.000000   0.000000   0.000000
     4  C    0.000000   0.000000   0.000000   0.000000   0.000000   0.000000
     5  C    0.000000   0.000000   0.000000   0.000000   0.000000   0.000000
     6  C    0.000000   0.000000   0.000000   0.000000   0.000000   0.000000
     7  H    0.000000   0.000000   0.000000   0.000000   0.000000   0.000000
     8  C    0.000000   0.000000   0.000000   0.000000   0.000000   0.000000
     9  O    0.000000   0.000000   0.000000   0.000000   0.000000   0.000000
    10  C    0.000000   0.000000   0.000000   0.000000   0.000000   0.000000
    11  H    0.000000   0.000000   0.000000   0.000000   0.000000   0.000000
    12  H    0.000000   0.000000   0.000000   0.000000   0.000000   0.000000
    13  H    0.000000   0.000000   0.000000   0.000000   0.000000   0.000000
    14  H    0.000000  -0.000002   0.000000   0.000000   0.000000   0.000000
    15  H    0.000000   0.000000   0.000001   0.000000   0.000000   0.000000
    16  H    0.000000   0.000000   0.000000   0.000024   0.000000   0.000000
    17  H    0.000000   0.000000   0.000000   0.000000   0.000001   0.000000
    18  H    0.000000   0.000000   0.000000   0.000000   0.000000  -0.035016
    19  H    0.000000   0.000000   0.000000   0.000000   0.000000   0.000000
    20  H    0.000000   0.000000   0.000000   0.000000   0.000000   0.000000
    21  O    0.000000   0.000000   0.000000   0.000000   0.000000   0.000000
    22  O    0.000000   0.000000   0.000000   0.000000   0.000000   0.000000
              19         20         21         22
     1  O    0.000000   0.000000   0.000000   0.000000
     2  C    0.000000   0.000000   0.000000   0.000000
     3  C    0.000000   0.000000   0.000000   0.000000
     4  C    0.000000   0.000000   0.000000   0.000000
     5  C    0.000000   0.000000   0.000000   0.000000
     6  C    0.000000   0.000000   0.000000   0.000000
     7  H    0.000000   0.000000   0.000000   0.000000
     8  C    0.000000   0.000000   0.000000   0.000000
     9  O    0.000000   0.000000   0.000000   0.000000
    10  C    0.000000   0.000000   0.000000   0.000000
    11  H    0.000000   0.000000   0.000000   0.000000
    12  H    0.000000   0.000000   0.000000   0.000000
    13  H    0.000000   0.000000   0.000000   0.000000
    14  H    0.000000   0.000000   0.000000   0.000000
    15  H    0.000000   0.000000   0.000000   0.000000
    16  H    0.000000   0.000000   0.000000   0.000000
    17  H    0.000000   0.000000   0.000000   0.000000
    18  H    0.000000   0.000000   0.000000   0.000000
    19  H   -0.035005   0.000000   0.000000   0.000000
    20  H    0.000000  -0.034635   0.000000   0.000000
    21  O    0.000000   0.000000  -0.000078   0.000000
    22  O    0.000000   0.000000   0.000000  -0.000257
 Mulliken charges and spin densities:
               1          2
     1  O   -0.460832   0.000000
     2  C    0.410888   0.000000
     3  C   -0.449580   0.000001
     4  C   -0.184583  -0.000019
     5  C   -0.320504  -0.000025
     6  C   -0.077809   0.000148
     7  H    0.167091  -0.000003
     8  C    0.305975  -0.000099
     9  O   -0.305450   0.000077
    10  C   -0.458857   1.104887
    11  H    0.092005   0.000000
    12  H    0.172830   0.000000
    13  H    0.179237   0.000000
    14  H    0.145089  -0.000002
    15  H    0.141701   0.000001
    16  H    0.198922   0.000024
    17  H    0.163863   0.000001
    18  H    0.141507  -0.035016
    19  H    0.146460  -0.035005
    20  H    0.168959  -0.034635
    21  O   -0.473415  -0.000078
    22  O    0.296501  -0.000257
 Sum of Mulliken charges =   0.00000   1.00000
 Mulliken charges and spin densities with hydrogens summed into heavy atoms:
               1          2
     1  O   -0.460832   0.000000
     2  C    0.502893   0.000000
     3  C   -0.097512   0.000000
     4  C    0.102207  -0.000020
     5  C    0.042281   0.000000
     6  C    0.089282   0.000145
     8  C    0.305975  -0.000099
     9  O   -0.305450   0.000077
    10  C   -0.001931   1.000231
    21  O   -0.473415  -0.000078
    22  O    0.296501  -0.000257
 APT charges:
               1
     1  O   -0.708755
     2  C    0.902780
     3  C   -0.711600
     4  C   -0.114943
     5  C   -0.460153
     6  C   -0.065951
     7  H    0.163935
     8  C    0.454585
     9  O   -0.465573
    10  C   -0.589861
    11  H    0.014877
    12  H    0.198269
    13  H    0.209648
    14  H    0.135459
    15  H    0.136028
    16  H    0.236437
    17  H    0.169631
    18  H    0.182611
    19  H    0.184761
    20  H    0.237958
    21  O   -0.921826
    22  O    0.811591
 Sum of APT charges =  -0.00009
 APT charges with hydrogens summed into heavy atoms:
               1
     1  O   -0.708755
     2  C    0.917657
     3  C   -0.303683
     4  C    0.156545
     5  C   -0.054085
     6  C    0.097984
     8  C    0.454585
     9  O   -0.465573
    10  C    0.015469
    21  O   -0.921826
    22  O    0.811591
 Charge=              0.0000 electrons
 Dipole moment (field-independent basis, Debye):
    X=              1.7751    Y=              4.4438    Z=              1.5179  Tot=              5.0202
 N-N= 3.596133341044D+02 E-N=-6.397853430831D+02  KE=-3.665521033840D+01
  Exact polarizability:  57.498   0.708  76.950  -8.398  37.421  83.700
 Approx polarizability:  43.472  -0.063  56.054  -7.063  28.863  58.807
 Leave Link  601 at Wed Feb 17 09:06:31 2021, MaxMem=    33554432 cpu:         0.0
 (Enter /cm/shared/apps/Gaussian09/g09/l701.exe)
 Compute integral second derivatives.
 ... and contract with generalized density number  0.
 Leave Link  701 at Wed Feb 17 09:06:31 2021, MaxMem=    33554432 cpu:         0.1
 (Enter /cm/shared/apps/Gaussian09/g09/l702.exe)
 L702 exits ... SP integral derivatives will be done elsewhere.
 Leave Link  702 at Wed Feb 17 09:06:31 2021, MaxMem=    33554432 cpu:         0.0
 (Enter /cm/shared/apps/Gaussian09/g09/l703.exe)
 Compute integral second derivatives, UseDBF=F ICtDFT=           0.
 Integral derivatives from FoFJK, PRISM(SPDF).
 Calling FoFJK, ICntrl=    100127 FMM=F ISym2X=0 I1Cent= 0 IOpClX= 1 NMat=1 NMatS=1 NMatT=0.
 FoFJK:  IHMeth=40 ICntrl=  100127 DoSepK=F KAlg= 0 I1Cent=   0 FoldK=F
 IRaf=         0 NMat=   1 IRICut=       1 DoRegI=T DoRafI=F ISym2E= 0.
 FoFCou: FMM=F IPFlag=           0 FMFlag=      100000 FMFlg1=         800
         NFxFlg=           0 DoJE=F BraDBF=F KetDBF=F FulRan=T
         wScrn=  0.000000 ICntrl=  100127 IOpCl=  1 I1Cent=           0 NGrid=           0
         NMat0=    1 NMatS0=      1 NMatT0=    0 NMatD0=    1 NMtDS0=    0 NMtDT0=    0
 Symmetry not used in FoFCou.
 Leave Link  703 at Wed Feb 17 09:06:32 2021, MaxMem=    33554432 cpu:         0.1
 (Enter /cm/shared/apps/Gaussian09/g09/l716.exe)
 Dipole        = 6.98389638D-01 1.74832138D+00 5.97183453D-01
 Polarizability= 5.74981323D+01 7.08436730D-01 7.69495990D+01
                -8.39779591D+00 3.74210894D+01 8.36998662D+01
 HyperPolar    = 7.23433131D+01 2.17916211D+01 1.13032629D+01
                 7.00713613D+01 3.30315181D-01-2.35680806D+01
                 4.06159023D+01-2.67850119D+01 7.87923387D+01
                 8.24002261D+01
 -------------------------------------------------------------------
 Center     Atomic                   Forces (Hartrees/Bohr)
 Number     Number              X              Y              Z
 -------------------------------------------------------------------
      1        8           0.000086954   -0.000254812   -0.000409718
      2        6          -0.000070364    0.000279015    0.000583680
      3        6          -0.000311275   -0.000566893   -0.000216881
      4        6           0.000400416   -0.000011746    0.000285098
      5        6           0.000380729    0.000778157    0.001139711
      6        6          -0.026330888   -0.030473931   -0.042038423
      7        1           0.001700273   -0.000295025    0.000758877
      8        6           0.000228318   -0.000870207   -0.001040846
      9        8          -0.000422248    0.000600178    0.001152668
     10        6          -0.000108845    0.000455540   -0.000945694
     11        1           0.000054703    0.000031324   -0.000038657
     12        1           0.000083522    0.000115418   -0.000062204
     13        1           0.000231544    0.000181488    0.000066495
     14        1          -0.000177293    0.000092285   -0.000025027
     15        1          -0.000003410    0.000140556   -0.000208506
     16        1          -0.000427668    0.000466282    0.000587404
     17        1          -0.000414047    0.000178041    0.000031603
     18        1           0.000135669   -0.000045694    0.000084749
     19        1          -0.000110502   -0.000173147    0.000117706
     20        1           0.000138924   -0.000215260    0.000921890
     21        8           0.002717845   -0.006467779   -0.003755256
     22        8           0.022217644    0.036056211    0.043011331
 -------------------------------------------------------------------
 Cartesian Forces:  Max     0.043011331 RMS     0.010379318
 Leave Link  716 at Wed Feb 17 09:06:32 2021, MaxMem=    33554432 cpu:         0.0
 (Enter /cm/shared/apps/Gaussian09/g09/l103.exe)

 GradGradGradGradGradGradGradGradGradGradGradGradGradGradGradGradGradGrad
 Berny optimization.
 Search for a saddle point.
 Step number   1 out of a maximum of  100
 All quantities printed in internal units (Hartrees-Bohrs-Radians)
 Swapping is turned off.
 Second derivative matrix not updated -- analytic derivatives used.
 ITU=  0
     Eigenvalues ---   -0.00016   0.00001   0.00004   0.00027   0.00029
     Eigenvalues ---    0.00037   0.00051   0.00060   0.00088   0.00142
     Eigenvalues ---    0.00170   0.00212   0.00272   0.00466   0.00541
     Eigenvalues ---    0.00792   0.00970   0.01579   0.01856   0.03215
     Eigenvalues ---    0.03879   0.04390   0.04617   0.04875   0.05416
     Eigenvalues ---    0.05660   0.05884   0.06579   0.06852   0.07743
     Eigenvalues ---    0.08572   0.08632   0.09170   0.10244   0.10937
     Eigenvalues ---    0.14023   0.15718   0.16091   0.19976   0.22257
     Eigenvalues ---    0.23793   0.29375   0.29621   0.34101   0.40850
     Eigenvalues ---    0.48012   0.51920   0.54972   0.59602   0.60249
     Eigenvalues ---    0.61613   0.62783   0.63410   0.66146   0.70708
     Eigenvalues ---    0.72328   0.78386   0.89990   1.66719   2.20006
 Eigenvectors required to have negative eigenvalues:
                          Y8        Y9        X15       X14       Z17
   1                    0.34413   0.31539   0.27703   0.22933  -0.20098
                          Y21       Z21       Z14       Z18       X12
   1                   -0.19601   0.18859  -0.18757   0.17557   0.16863
 RFO step:  Lambda0=1.206888340D-04 Lambda=-1.02486559D-02.
 Linear search not attempted -- option 19 set.
 Maximum step size (   0.300) exceeded in Quadratic search.
    -- Step size scaled by   0.446
 TrRot=  0.033576  0.009621 -0.009388 -0.103934  0.002660  0.107830
 Variable       Old X    -DE/DX   Delta X   Delta X   Delta X     New X
                                 (Linear)    (Quad)   (Total)
    X1       -4.10043   0.00009   0.00000  -0.02250  -0.02143  -4.12186
    Y1        9.64053  -0.00025   0.00000  -0.00721  -0.01425   9.62628
    Z1        1.91733  -0.00041   0.00000  -0.03743  -0.03316   1.88417
    X2       -1.96768  -0.00007   0.00000  -0.01330  -0.01589  -1.98357
    Y2       10.16425   0.00028   0.00000  -0.01111  -0.00964  10.15461
    Z2        1.28055   0.00058   0.00000  -0.00946  -0.01071   1.26984
    X3       -0.94626  -0.00031   0.00000   0.02414   0.01611  -0.93015
    Y3        9.79627  -0.00057   0.00000  -0.03333  -0.02700   9.76928
    Z3       -1.36224  -0.00022   0.00000   0.00732   0.00317  -1.35907
    X4       -2.97798   0.00040   0.00000   0.05092   0.03963  -2.93835
    Y4        9.25241  -0.00001   0.00000  -0.01855  -0.01947   9.23294
    Z4       -3.35045   0.00029   0.00000  -0.02350  -0.02250  -3.37294
    X5       -4.29895   0.00038   0.00000   0.00310   0.00268  -4.29627
    Y5        6.69051   0.00078   0.00000   0.00638   0.00004   6.69055
    Z5       -2.97461   0.00114   0.00000  -0.03246  -0.02856  -3.00317
    X6       -2.65999  -0.02633   0.00000  -0.02616  -0.01991  -2.67991
    Y6        4.55652  -0.03047   0.00000  -0.03492  -0.03479   4.52173
    Z6       -3.66572  -0.04204   0.00000  -0.01757  -0.01855  -3.68426
    X7       -0.83968   0.00170   0.00000  -0.03958  -0.02953  -0.86920
    Y7        4.11768  -0.00030   0.00000  -0.03197  -0.02501   4.09267
    Z7       -2.92473   0.00076   0.00000   0.04765   0.04177  -2.88296
    X8        1.22914   0.00023   0.00000  -0.04836  -0.06216   1.16698
    Y8        6.33940  -0.00087   0.00000   0.08384   0.10035   6.43975
    Z8       -8.40095  -0.00104   0.00000  -0.04152  -0.05216  -8.45311
    X9        2.11754  -0.00042   0.00000  -0.02595  -0.04173   2.07581
    Y9        5.60291   0.00060   0.00000   0.09783   0.11838   5.72129
    Z9      -10.21708   0.00115   0.00000  -0.03539  -0.04864 -10.26572
   X10       -2.15810  -0.00011   0.00000   0.00536  -0.00069  -2.15878
   Y10        1.79472   0.00046   0.00000   0.00411   0.00873   1.80345
   Z10      -12.38216  -0.00095   0.00000   0.04776   0.04463 -12.33753
   X11       -0.59508   0.00005   0.00000  -0.03252  -0.03459  -0.62967
   Y11       10.94935   0.00003   0.00000  -0.00057   0.00579  10.95514
   Z11        2.64038  -0.00004   0.00000   0.00370  -0.00090   2.63948
   X12        0.14713   0.00008   0.00000   0.05015   0.03407   0.18120
   Y12       11.49367   0.00012   0.00000  -0.04586  -0.03503  11.45864
   Z12       -1.93150  -0.00006   0.00000   0.01753   0.01090  -1.92060
   X13        0.45948   0.00023   0.00000   0.00921   0.00746   0.46694
   Y13        8.23561   0.00018   0.00000  -0.04559  -0.03385   8.20176
   Z13       -1.32544   0.00007   0.00000   0.03671   0.02843  -1.29702
   X14       -4.42967  -0.00018   0.00000   0.07146   0.05428  -4.37539
   Y14       10.76481   0.00009   0.00000   0.00387  -0.00264  10.76216
   Z14       -3.28962  -0.00003   0.00000  -0.05765  -0.05242  -3.34204
   X15       -2.11699   0.00000   0.00000   0.08396   0.06743  -2.04957
   Y15        9.33020   0.00014   0.00000  -0.03996  -0.03688   9.29333
   Z15       -5.26019  -0.00021   0.00000  -0.01016  -0.01150  -5.27169
   X16       -4.91260  -0.00043   0.00000  -0.02170  -0.01613  -4.92873
   Y16        6.50674   0.00047   0.00000   0.02121   0.01183   6.51856
   Z16       -0.95650   0.00059   0.00000  -0.03836  -0.03283  -0.98932
   X17       -6.08570  -0.00041   0.00000   0.01382   0.01047  -6.07524
   Y17        6.65458   0.00018   0.00000   0.03601   0.02307   6.67765
   Z17       -4.08266   0.00003   0.00000  -0.05121  -0.04261  -4.12527
   X18       -3.48750   0.00014   0.00000  -0.00542  -0.01413  -3.50163
   Y18        1.49476  -0.00005   0.00000   0.00702   0.00683   1.50159
   Z18      -13.84514   0.00008   0.00000   0.05738   0.05771 -13.78743
   X19       -0.38927  -0.00011   0.00000  -0.00109  -0.01158  -0.40085
   Y19        2.64290  -0.00017   0.00000   0.01168   0.02328   2.66618
   Z19      -12.78614   0.00012   0.00000   0.03766   0.03011 -12.75604
   X20       -2.58335   0.00014   0.00000   0.02596   0.02721  -2.55613
   Y20        1.21430  -0.00022   0.00000  -0.01229  -0.00976   1.20454
   Z20      -10.50479   0.00092   0.00000   0.04959   0.04735 -10.45744
   X21       -2.45307   0.00272   0.00000  -0.02150  -0.00912  -2.46219
   Y21        1.27113  -0.00647   0.00000  -0.05398  -0.05229   1.21884
   Z21       -6.28607  -0.00376   0.00000   0.05562   0.05314  -6.23293
   X22       -3.72310   0.02222   0.00000   0.01048   0.01756  -3.70554
   Y22        3.05611   0.03606   0.00000   0.00567   0.00232   3.05844
   Z22       -5.55591   0.04301   0.00000   0.03600   0.03732  -5.51859
         Item               Value     Threshold  Converged?
 Maximum Force            0.043011     0.000450     NO 
 RMS     Force            0.010379     0.000300     NO 
 Maximum Displacement     0.118383     0.001800     NO 
 RMS     Displacement     0.036001     0.001200     NO 
 Predicted change in Energy=-3.526868D-03
 Lowest energy point so far.  Saving SCF results.
 GradGradGradGradGradGradGradGradGradGradGradGradGradGradGradGradGradGrad

 Leave Link  103 at Wed Feb 17 09:06:32 2021, MaxMem=    33554432 cpu:         0.0
 (Enter /cm/shared/apps/Gaussian09/g09/l202.exe)
                          Input orientation:                          
 ---------------------------------------------------------------------
 Center     Atomic      Atomic             Coordinates (Angstroms)
 Number     Number       Type             X           Y           Z
 ---------------------------------------------------------------------
      1          8           0       -2.181194    5.094008    0.997058
      2          6           0       -1.049662    5.373586    0.671969
      3          6           0       -0.492215    5.169678   -0.719188
      4          6           0       -1.554906    4.885860   -1.784884
      5          6           0       -2.273488    3.540488   -1.589211
      6          6           0       -1.418146    2.392797   -1.949627
      7          1           0       -0.459963    2.165749   -1.525597
      8          6           0        0.617542    3.407769   -4.473191
      9          8           0        1.098471    3.027578   -5.432383
     10          6           0       -1.142379    0.954343   -6.528742
     11          1           0       -0.333207    5.797212    1.396751
     12          1           0        0.095888    6.063649   -1.016338
     13          1           0        0.247097    4.340184   -0.686352
     14          1           0       -2.315358    5.695091   -1.768531
     15          1           0       -1.084584    4.917817   -2.789658
     16          1           0       -2.608172    3.449474   -0.523527
     17          1           0       -3.214876    3.533658   -2.182998
     18          1           0       -1.852981    0.794606   -7.295995
     19          1           0       -0.212122    1.410882   -6.750204
     20          1           0       -1.352648    0.637417   -5.533841
     21          8           0       -1.302935    0.644983   -3.298323
     22          8           0       -1.960886    1.618454   -2.920311
 ---------------------------------------------------------------------
                    Distance matrix (angstroms):
                    1          2          3          4          5
     1  O    0.000000
     2  C    1.210046   0.000000
     3  C    2.409124   1.512496   0.000000
     4  C    2.859154   2.555246   1.531526   0.000000
     5  C    3.018398   3.157679   2.565957   1.537750   0.000000
     6  C    4.069611   3.986685   3.175279   2.502240   1.476044
     7  H    4.230972   3.932844   3.110454   2.943660   2.276583
     8  C    6.371809   5.754710   4.292834   3.759159   4.085708
     9  O    7.507599   6.883411   5.416002   4.878306   5.138400
    10  C    8.651798   8.449174   7.207126   6.175045   5.689158
    11  H    2.017253   1.103665   2.212755   3.527877   4.215859
    12  H    3.190465   2.153799   1.110561   2.168634   3.508343
    13  H    3.049379   2.143487   1.111630   2.179851   2.794283
    14  H    2.833334   2.767922   2.168185   1.110590   2.162458
    15  H    3.946240   3.491677   2.168220   1.109862   2.179817
    16  H    2.280127   2.749613   2.733982   2.182567   1.120705
    17  H    3.689979   4.027944   3.497454   2.177716   1.113033
    18  H    9.347048   9.225012   8.015443   6.870192   6.346974
    19  H    8.801291   8.455362   7.111972   6.207490   5.951495
    20  H    7.949864   7.812502   6.668029   5.669643   4.983561
    21  O    6.246236   6.179568   5.270870   4.509881   3.499570
    22  O    5.241544   5.275967   4.428671   3.482808   2.358762
                    6          7          8          9         10
     6  C    0.000000
     7  H    1.072132   0.000000
     8  C    3.397435   3.375195   0.000000
     9  O    4.343489   4.293536   1.138370   0.000000
    10  C    4.807649   5.192750   3.652657   3.243719   0.000000
    11  H    4.895445   4.663015   6.408556   7.507174   9.323174
    12  H    4.079029   3.970131   4.390405   5.452005   7.617408
    13  H    2.856784   2.435659   3.917497   4.997258   6.894061
    14  H    3.426796   3.994717   4.598796   5.673946   6.819837
    15  H    2.681910   3.092230   2.830506   3.914426   5.449148
    16  H    2.136935   2.695718   5.099688   6.165555   6.666096
    17  H    2.141090   3.145298   4.466348   5.423982   5.462014
    18  H    5.597048   6.092457   4.571687   4.143704   1.057899
    19  H    5.046205   5.284673   3.140172   2.463333   1.059647
    20  H    3.991521   4.381633   3.561105   3.425076   1.065121
    21  O    2.210681   2.483121   3.563921   3.999715   3.249167
    22  O    1.355139   2.120738   3.501625   4.201881   3.759225
                   11         12         13         14         15
    11  H    0.000000
    12  H    2.465382   0.000000
    13  H    2.607490   1.761274   0.000000
    14  H    3.736089   2.552594   3.094036   0.000000
    15  H    4.343262   2.418907   2.555569   1.778105   0.000000
    16  H    3.791412   3.793245   2.995402   2.584294   3.100436
    17  H    5.122724   4.327021   3.856902   2.377544   2.611911
    18  H   10.143945   8.425853   7.789020   7.401446   6.156166
    19  H    9.253509   7.390556   6.749962   6.898921   5.361502
    20  H    8.700337   7.207641   6.306173   6.378435   5.091584
    21  O    7.037724   6.043683   4.783252   5.372975   4.308542
    22  O    6.224820   5.255015   4.156149   4.251025   3.416251
                   16         17         18         19         20
    16  H    0.000000
    17  H    1.768905   0.000000
    18  H    7.313341   5.958179   0.000000
    19  H    6.976275   5.863623   1.835785   0.000000
    20  H    5.881093   4.804607   1.838540   1.838093   0.000000
    21  O    4.155515   3.639219   4.038109   3.700264   2.236084
    22  O    3.084831   2.405021   4.453873   4.215370   2.857084
                   21         22
    21  O    0.000000
    22  O    1.234277   0.000000
 Symmetry turned off by external request.
 Stoichiometry    C7H11O4(2)
 Framework group  C1[X(C7H11O4)]
 Deg. of freedom    60
 Full point group                 C1      NOp   1
 Rotational constants (GHZ):      1.5826457      0.4175924      0.3542701
 Leave Link  202 at Wed Feb 17 09:06:32 2021, MaxMem=    33554432 cpu:         0.0
 (Enter /cm/shared/apps/Gaussian09/g09/l301.exe)
 Standard basis: VSTO-6G (5D, 7F)
 Ernie: Thresh=  0.10000D-02 Tol=  0.10000D-05 Strict=F.
  NNHCO=     0 NNPyr=     0 NCTC=     0               EPep=         0.000000000
    EC=       275.522582512  ECS=         4.400648355   EG=         0.309969341
   EHC=         0.002096249  EAt=       -76.388488019  AtH=         3.199295150
 EPDDG=         0.000000000  ECC=       280.235296456 EAtT=        79.587783169
    55 basis functions,   330 primitive gaussians,    55 cartesian basis functions
    32 alpha electrons       31 beta electrons
       nuclear repulsion energy       359.8230796247 Hartrees.
 IExCor=    0 DFT=F Ex=HF Corr=None ExCW=0 ScaHFX=  1.000000
 ScaDFX=  1.000000  1.000000  1.000000  1.000000 ScalE2=  1.000000  1.000000
 IRadAn=      0 IRanWt=     -1 IRanGd=            0 ICorTp=0 IEmpDi=  4
 Integral buffers will be    131072 words long.
 Regular integral format.
 Two-electron integral symmetry is turned off.
 Leave Link  301 at Wed Feb 17 09:06:32 2021, MaxMem=    33554432 cpu:         0.0
 (Enter /cm/shared/apps/Gaussian09/g09/l302.exe)
 Do NDO integrals.
 NPDir=0 NMtPBC=     1 NCelOv=     1 NCel=       1 NClECP=     1 NCelD=      1
         NCelK=      1 NCelE2=     1 NClLst=     1 CellRange=     0.0.
 One-electron integrals computed using PRISM.
 NBasis=    55 RedAO= F EigKep=  0.00D+00  NBF=    55
 NBsUse=    55 1.00D-04 EigRej=  0.00D+00 NBFU=    55
 Leave Link  302 at Wed Feb 17 09:06:32 2021, MaxMem=    33554432 cpu:         0.1
 (Enter /cm/shared/apps/Gaussian09/g09/l303.exe)
 DipDrv:  MaxL=1.
 Leave Link  303 at Wed Feb 17 09:06:32 2021, MaxMem=    33554432 cpu:         0.0
 (Enter /cm/shared/apps/Gaussian09/g09/l401.exe)
 Initial guess from the checkpoint file:  "/local/Gau-49501.chk"
 B after Tr=     0.066651    0.020873   -0.016624
         Rot=    0.999989   -0.000110   -0.002659   -0.003957 Ang=  -0.55 deg.
 Guess basis will be translated and rotated to current coordinates.
 JPrj=0 DoOrth=T DoCkMO=T.
 Initial guess <Sx>= 0.0000 <Sy>= 0.0000 <Sz>= 0.5000 <S**2>= 0.7539 S= 0.5020
 Leave Link  401 at Wed Feb 17 09:06:32 2021, MaxMem=    33554432 cpu:         0.1
 (Enter /cm/shared/apps/Gaussian09/g09/l508.exe)
 Direct SCF.
 Tight linear equation convergence will be used.
 UPM6 wavefunction.
 Quadratic Convergence SCF Method.
 Line search only if initial step raises energy.
 Two-electron integral symmetry not used.
 ReadGW:  IGet=1 IStart=       59293 Next=       59293 LGW=           0.
 Keep J ints in memory in canonical form, NReq=909807.
 FoFCou: FMM=F IPFlag=           0 FMFlag=           0 FMFlg1=           0
         NFxFlg=           0 DoJE=F BraDBF=F KetDBF=F FulRan=T
         wScrn=  0.000000 ICntrl=     600 IOpCl=  2 I1Cent=           0 NGrid=           0
         NMat0=    1 NMatS0=    121 NMatT0=    0 NMatD0=    1 NMtDS0=    0 NMtDT0=    0
 Symmetry not used in FoFCou.
 Iteration   1 EE= 0.717564319495523E-02                                Grad=4.466D-02 Max rot=    0.4195 deg.
 Gradient too large for Newton-Raphson -- use scaled steepest descent instead.
 Alpha Gap=     0.312 HL deriv= 6.28D-03
  Beta Gap=     0.312 HL deriv= 6.28D-03
     ILin= 1 X=0.000D+00 Y= 7.175643194955D-03 DE= 0.00D+00 F= -4.75D-03
     ILin= 2 X=3.000D-01 Y= 5.889732301682D-03 DE=-1.29D-03 F= -3.82D-03
     ILin= 3 X=6.000D-01 Y= 4.882634037529D-03 DE=-2.29D-03 F= -2.89D-03
     ILin= 4 X=1.200D+00 Y= 3.703676597638D-03 DE=-3.47D-03 F= -1.04D-03
     ILin= 5 X=2.400D+00 Y= 4.676703096720D-03 DE=-2.50D-03 F=  2.66D-03
     An  expanding polynomial of degree  5 produced  1.5365
 Iteration   2 EE= 0.352909481421193E-02 Delta-E=       -0.003646548381 Grad=9.276D-03 Max rot=    0.1130 deg.
 QCNR:  CnvC1=3.85D-09 CnvC2=3.85D-08
 LinEq1:  Iter=  0 NonCon=     1 RMS=3.37D-04 Max=4.10D-03 NDo=     1
 AX will form     1 AO Fock derivatives at one time.
 LinEq1:  Iter=  1 NonCon=     1 RMS=9.71D-05 Max=9.66D-04 NDo=     1
 LinEq1:  Iter=  2 NonCon=     1 RMS=2.13D-05 Max=2.94D-04 NDo=     1
 LinEq1:  Iter=  3 NonCon=     1 RMS=4.79D-06 Max=5.92D-05 NDo=     1
 LinEq1:  Iter=  4 NonCon=     1 RMS=7.46D-07 Max=5.98D-06 NDo=     1
 LinEq1:  Iter=  5 NonCon=     1 RMS=1.61D-07 Max=1.86D-06 NDo=     1
 LinEq1:  Iter=  6 NonCon=     1 RMS=4.24D-08 Max=9.65D-07 NDo=     1
 LinEq1:  Iter=  7 NonCon=     1 RMS=1.25D-08 Max=1.56D-07 NDo=     1
 LinEq1:  Iter=  8 NonCon=     0 RMS=2.71D-09 Max=2.99D-08 NDo=     1
 Linear equations converged to 3.847D-09 3.847D-08 after     8 iterations.
 Angle between quadratic step and gradient=  40.08 degrees.
     ILin= 1 X=0.000D+00 Y= 3.529094814212D-03 DE= 0.00D+00 F= -3.12D-04
     ILin= 2 X=1.000D+00 Y= 3.373523986738D-03 DE=-1.56D-04 F=  5.78D-07
     Accept linear search using points  1 and  2.
     An  expanding polynomial of degree  2 produced  0.9982
     Minimum is close to point  2 DX= -1.85D-03 DF= -5.33D-10 DXR=  1.85D-03 DFR=  3.43D-06 which will be used.
 Iteration   3 EE= 0.337352398673829E-02 Delta-E=       -0.000155570827 Grad=3.324D-05 Max rot=    0.0008 deg.
 QCNR:  CnvC1=3.32D-10 CnvC2=3.32D-09
 LinEq1:  Iter=  0 NonCon=     1 RMS=1.95D-06 Max=4.28D-05 NDo=     1
 LinEq1:  Iter=  1 NonCon=     1 RMS=5.53D-07 Max=9.19D-06 NDo=     1
 LinEq1:  Iter=  2 NonCon=     1 RMS=1.27D-07 Max=1.77D-06 NDo=     1
 LinEq1:  Iter=  3 NonCon=     1 RMS=3.74D-08 Max=9.56D-07 NDo=     1
 LinEq1:  Iter=  4 NonCon=     1 RMS=1.48D-08 Max=2.71D-07 NDo=     1
 LinEq1:  Iter=  5 NonCon=     1 RMS=3.40D-09 Max=4.23D-08 NDo=     1
 LinEq1:  Iter=  6 NonCon=     1 RMS=8.26D-10 Max=1.35D-08 NDo=     1
 LinEq1:  Iter=  7 NonCon=     0 RMS=2.01D-10 Max=2.72D-09 NDo=     1
 Linear equations converged to 3.324D-10 3.324D-09 after     7 iterations.
 Angle between quadratic step and gradient=  40.80 degrees.
     ILin= 1 X=0.000D+00 Y= 3.373523986738D-03 DE= 0.00D+00 F= -7.93D-09
     ILin= 2 X=1.000D+00 Y= 3.373520023331D-03 DE=-3.96D-09
 Iteration   4 EE= 0.337352002333091E-02 Delta-E=       -0.000000003963 Grad=1.505D-06 Max rot=    0.0000 deg.
 QCNR:  CnvC1=1.51D-11 CnvC2=1.51D-10
 LinEq1:  Iter=  0 NonCon=     1 RMS=5.46D-08 Max=7.39D-07 NDo=     1
 LinEq1:  Iter=  1 NonCon=     1 RMS=1.70D-08 Max=2.74D-07 NDo=     1
 LinEq1:  Iter=  2 NonCon=     1 RMS=4.82D-09 Max=8.29D-08 NDo=     1
 LinEq1:  Iter=  3 NonCon=     1 RMS=1.30D-09 Max=2.36D-08 NDo=     1
 LinEq1:  Iter=  4 NonCon=     1 RMS=4.85D-10 Max=1.31D-08 NDo=     1
 LinEq1:  Iter=  5 NonCon=     1 RMS=2.10D-10 Max=5.16D-09 NDo=     1
 LinEq1:  Iter=  6 NonCon=     1 RMS=5.07D-11 Max=6.80D-10 NDo=     1
 LinEq1:  Iter=  7 NonCon=     0 RMS=1.00D-11 Max=1.29D-10 NDo=     1
 Linear equations converged to 1.505D-11 1.505D-10 after     7 iterations.
 Angle between quadratic step and gradient=  62.92 degrees.
     ILin= 1 X=0.000D+00 Y= 3.373520023331D-03 DE= 0.00D+00 F= -1.46D-11
     ILin= 2 X=1.000D+00 Y= 3.373520014861D-03 DE=-8.47D-12
 Iteration   5 EE= 0.337352001486124E-02 Delta-E=       -0.000000000008 Grad=1.012D-07 Max rot=    0.0000 deg.
 Rotation gradient small -- convergence achieved.
 SCF Done:  E(UPM6) =  0.337352001486E-02 a.u. after    5 cycles
            Convg  =    0.1012D-06                    31 Fock formations.
              S**2 =  0.7539                  -V/T =  1.0001
 <Sx>= 0.0000 <Sy>= 0.0000 <Sz>= 0.5000 <S**2>= 0.7539 S= 0.5020
 <L.S>= 0.000000000000E+00
 Annihilation of the first spin contaminant:
 S**2 before annihilation     0.7539,   after     0.7500
 Leave Link  508 at Wed Feb 17 09:06:32 2021, MaxMem=    33554432 cpu:         0.1
 (Enter /cm/shared/apps/Gaussian09/g09/l801.exe)
 Range of M.O.s used for correlation:     1    55
 NBasis=    55 NAE=    32 NBE=    31 NFC=     0 NFV=     0
 NROrb=     55 NOA=    32 NOB=    31 NVA=    23 NVB=    24
 Leave Link  801 at Wed Feb 17 09:06:32 2021, MaxMem=    33554432 cpu:         0.0
 (Enter /cm/shared/apps/Gaussian09/g09/l1101.exe)
 Using compressed storage, NAtomX=    22.
 Will process     23 centers per pass.
 Leave Link 1101 at Wed Feb 17 09:06:32 2021, MaxMem=    33554432 cpu:         0.0
 (Enter /cm/shared/apps/Gaussian09/g09/l1102.exe)
 Symmetrizing basis deriv contribution to polar:
 IMax=3 JMax=2 DiffMx= 0.00D+00
 Leave Link 1102 at Wed Feb 17 09:06:32 2021, MaxMem=    33554432 cpu:         0.0
 (Enter /cm/shared/apps/Gaussian09/g09/l1110.exe)
 Forming Gx(P) for the SCF density, NAtomX=    22.
 Integral derivatives from FoFJK, PRISM(SPDF).
 Do as many integral derivatives as possible in FoFJK.
 G2DrvN: MDV=      33495261.
 G2DrvN: will do    23 centers at a time, making    1 passes.
 Calling FoFCou, ICntrl=  3107 FMM=F I1Cent=   0 AccDes= 0.00D+00.
 FoFJK:  IHMeth=40 ICntrl=    3107 DoSepK=F KAlg= 0 I1Cent=   0 FoldK=F
 IRaf=         0 NMat=   1 IRICut=       1 DoRegI=T DoRafI=F ISym2E= 0.
 FoFCou: FMM=F IPFlag=           0 FMFlag=      100000 FMFlg1=           0
         NFxFlg=           0 DoJE=F BraDBF=F KetDBF=F FulRan=T
         wScrn=  0.000000 ICntrl=    3107 IOpCl=  1 I1Cent=           0 NGrid=           0
         NMat0=    1 NMatS0=      1 NMatT0=    0 NMatD0=    1 NMtDS0=    0 NMtDT0=    0
 Symmetry not used in FoFCou.
 End of G2Drv F.D. properties file   721 does not exist.
 End of G2Drv F.D. properties file   722 does not exist.
 End of G2Drv F.D. properties file   788 does not exist.
 Leave Link 1110 at Wed Feb 17 09:06:32 2021, MaxMem=    33554432 cpu:         0.0
 (Enter /cm/shared/apps/Gaussian09/g09/l1002.exe)
 Minotr:  UHF open shell wavefunction.
          IDoAtm=1111111111111111111111
          Direct CPHF calculation.
          Differentiating once with respect to electric field.
                with respect to dipole field.
          Differentiating once with respect to nuclear coordinates.
          Electric field/nuclear overlap derivatives assumed to be zero.
          Requested convergence is 1.0D-08 RMS, and 1.0D-07 maximum.
          NewPWx=T KeepS1=F KeepF1=F KeepIn=T MapXYZ=F SortEE=F KeepMc=T.
          MDV=      33495207 using IRadAn=       2.
 Keep J ints in memory in canonical form, NReq=889842.
 FoFCou: FMM=F IPFlag=           0 FMFlag=           0 FMFlg1=           0
         NFxFlg=           0 DoJE=F BraDBF=F KetDBF=F FulRan=T
         wScrn=  0.000000 ICntrl=     600 IOpCl=  2 I1Cent=           0 NGrid=           0
         NMat0=    1 NMatS0=    121 NMatT0=    0 NMatD0=    1 NMtDS0=    0 NMtDT0=    0
 Symmetry not used in FoFCou.
          Solving linear equations separately, MaxMat=       0.
          There are    69 degrees of freedom in the 1st order CPHF.  IDoFFX=5 NUNeed=    69.
 LinEq1:  Iter=  0 NonCon=    69 RMS=2.05D-01 Max=4.11D+00 NDo=    69
 AX will form    69 AO Fock derivatives at one time.
 LinEq1:  Iter=  1 NonCon=    69 RMS=4.35D-02 Max=3.86D-01 NDo=    69
 LinEq1:  Iter=  2 NonCon=    69 RMS=9.90D-03 Max=1.31D-01 NDo=    69
 LinEq1:  Iter=  3 NonCon=    69 RMS=1.65D-03 Max=1.39D-02 NDo=    69
 LinEq1:  Iter=  4 NonCon=    69 RMS=3.59D-04 Max=3.26D-03 NDo=    69
 LinEq1:  Iter=  5 NonCon=    69 RMS=5.39D-05 Max=5.76D-04 NDo=    69
 LinEq1:  Iter=  6 NonCon=    69 RMS=9.36D-06 Max=1.52D-04 NDo=    69
 LinEq1:  Iter=  7 NonCon=    64 RMS=3.24D-06 Max=6.73D-05 NDo=    69
 LinEq1:  Iter=  8 NonCon=    23 RMS=9.66D-07 Max=1.47D-05 NDo=    69
 LinEq1:  Iter=  9 NonCon=    10 RMS=2.19D-07 Max=3.09D-06 NDo=    69
 LinEq1:  Iter= 10 NonCon=     3 RMS=4.37D-08 Max=7.06D-07 NDo=    69
 LinEq1:  Iter= 11 NonCon=     2 RMS=1.04D-08 Max=1.76D-07 NDo=    69
 LinEq1:  Iter= 12 NonCon=     0 RMS=2.18D-09 Max=3.65D-08 NDo=    69
 Linear equations converged to 1.000D-08 1.000D-07 after    12 iterations.
 FullF1:  Do perturbations    1 to     3.
 Isotropic polarizability for W=    0.000000       71.73 Bohr**3.
 End of Minotr F.D. properties file   721 does not exist.
 End of Minotr F.D. properties file   722 does not exist.
 End of Minotr F.D. properties file   788 does not exist.
 Leave Link 1002 at Wed Feb 17 09:06:33 2021, MaxMem=    33554432 cpu:         0.5
 (Enter /cm/shared/apps/Gaussian09/g09/l701.exe)
 Compute integral second derivatives.
 ... and contract with generalized density number  0.
 Leave Link  701 at Wed Feb 17 09:06:33 2021, MaxMem=    33554432 cpu:         0.1
 (Enter /cm/shared/apps/Gaussian09/g09/l702.exe)
 L702 exits ... SP integral derivatives will be done elsewhere.
[...]
 459,-0.00010351,-0.00003407,-0.00001311,0.00006339,-0.00007092,-0.0001
 1717,-0.00005911,0.00006005,0.00014458,0.00000003,0.00000089,0.0000689
 3,0.00020990,-0.00026438,-0.00030391,0.10611673,0.13288252,0.00135787,
 -0.00259135,-0.00197893,0.02318555,0.01437279,-0.01647234,0.03202001,0
 .03303804,-0.04673718,-0.01526968,-0.01141077,0.00101920,-0.00195601,-
 0.00048095,-0.00170191,-0.00000109,0.00014095,-0.00004551,-0.00001313,
 -0.00001687,0.00002916,0.00019002,0.00007512,-0.00024535,-0.00015242,-
 0.00005023,0.00024527,0.00003239,0.00005250,-0.00001849,0.00019041,-0.
 00102160,-0.00054376,-0.03975417,-0.03692685,0.06423562,0.00039270,-0.
 00097194,0.00062286,-0.01069090,0.01886345,0.01091803,-0.07473823,0.07
 598569,-0.01354708,-0.01719554,0.01606391,-0.01505832,-0.00057354,0.00
 006230,0.00030521,-0.00053255,-0.00054908,-0.00033002,0.00016269,-0.00
 043352,-0.00003540,-0.00006618,0.00000723,-0.00004729,0.00003920,0.000
 00080,0.00007798,-0.00008057,-0.00001403,0.00005738,0.00036393,-0.0006
 1330,0.00037974,0.00600609,-0.00958104,0.00157066,0.09832360,-0.002442
 26,-0.00008089,0.00040347,0.01680007,-0.01353418,-0.01259464,0.0760557
 0,-0.16216617,0.02067628,0.00792051,0.00071829,0.00664250,-0.00016923,
 -0.00000673,-0.00004924,-0.00026313,-0.00006651,-0.00027226,-0.0003314
 3,-0.00038602,-0.00019700,0.00000016,-0.00009198,0.00006377,0.00001106
 ,0.00006504,-0.00008190,0.00000479,-0.00003387,0.00010423,-0.00028924,
 0.00032069,-0.00026658,0.00196743,-0.02268762,0.00600915,-0.09892860,0
 .19760148,0.00183907,0.00161978,-0.00280418,0.01317711,-0.02213349,-0.
 00133492,-0.01124845,0.01724596,-0.03489033,-0.01765851,0.01492402,-0.
 00878997,-0.00020665,-0.00007011,-0.00001695,-0.00013548,-0.00011985,-
 0.00029387,-0.00010447,-0.00029064,0.00026291,0.00016757,-0.00004799,-
 0.00023905,-0.00014033,0.00003769,0.00026052,0.00001898,0.00004776,0.0
 0005238,-0.00008412,0.00105539,-0.00142689,-0.00122468,0.00804979,0.00
 228060,0.01771713,-0.02053783,0.04903543,-0.00079153,0.00028184,-0.000
 30395,0.00129118,-0.00001955,-0.00067878,-0.01931618,0.01541214,-0.013
 76263,-0.08414456,0.08078291,-0.00795226,0.00541980,-0.01328803,0.0013
 4639,-0.00111166,-0.00133273,0.00013092,-0.00003471,0.00005295,-0.0000
 9993,-0.00009753,-0.00004852,0.00022089,0.00010061,0.00001590,-0.00025
 383,-0.00000097,-0.00001001,-0.00007162,-0.00013271,0.00003040,0.00023
 166,-0.00078511,0.00015960,-0.00040874,-0.00122162,-0.00009696,-0.0016
 2437,0.10804793,0.00046072,-0.00049527,-0.00014444,-0.00086696,0.00080
 940,0.00092172,0.00734485,-0.00026720,0.00523254,0.08035028,-0.1576930
 9,0.01337088,-0.00005825,-0.03652548,0.00442527,-0.00132642,-0.0014196
 6,0.00023759,0.00000676,0.00006364,0.00001051,0.00004619,-0.00003276,-
 0.00025539,-0.00008443,0.00004475,0.00033613,-0.00000751,0.00002508,0.
 00005487,0.00011153,0.00000320,-0.00013018,0.00005235,0.00052327,-0.00
 015852,0.00007351,0.00000332,-0.00024113,-0.09373816,0.20149811,0.0006
 3765,-0.00025835,0.00078281,-0.00203346,0.00070310,-0.00138092,-0.0202
 5658,0.01514854,-0.00921044,-0.00600393,0.01039733,-0.03458759,-0.0007
 3780,0.00725147,0.00242261,0.00046332,0.00024366,0.00013748,0.00002056
 ,-0.00001752,-0.00000874,-0.00003226,0.00010684,-0.00030311,0.00000399
 ,-0.00006939,0.00025597,-0.00000505,0.00005440,-0.00001660,-0.00001576
 ,0.00009510,0.00009295,-0.00034016,0.00016071,0.00014149,-0.00176606,-
 0.00029103,-0.00166331,0.01772221,-0.01897558,0.04375426,0.00010711,0.
 00005429,0.00015308,-0.00181743,-0.00008906,-0.00139824,0.00507179,-0.
 00243162,-0.01535870,-0.07681345,0.01101359,0.07681155,-0.01566221,-0.
 00918592,0.01792281,0.00000945,-0.00039734,0.00056203,0.00006298,0.000
 05844,-0.00000944,-0.00073783,-0.00000641,0.00057685,0.00052385,-0.000
 01129,-0.00063723,-0.00008472,-0.00006822,-0.00000462,0.00023677,-0.00
 023167,-0.00032262,0.00036478,-0.00022671,-0.00089296,0.00029435,-0.00
 018568,-0.00048848,-0.00804805,0.00837592,0.01238353,0.09828437,-0.000
 01603,-0.00005721,-0.00004522,0.00002152,0.00030957,-0.00034971,-0.000
 43638,0.00218539,-0.00385526,0.01187344,-0.03607840,-0.01992582,-0.016
 91749,-0.00384197,0.01724871,-0.00037331,-0.00059500,0.00093407,-0.000
 16579,-0.00018504,0.00019956,0.00016279,-0.00055777,-0.00041462,-0.000
 14600,0.00033919,0.00041335,0.00000901,0.00005937,0.00012021,0.0000159
 4,-0.00004036,-0.00002652,-0.00038652,0.00012416,-0.00076501,0.0001307
 3,0.00028663,0.00048150,0.01332111,-0.00533430,-0.01470258,-0.00481624
 ,0.04513569,-0.00040741,0.00012885,0.00071388,-0.00142212,-0.00034470,
 -0.00225394,-0.00074084,-0.00627202,-0.03541492,0.07431583,-0.01741911
 ,-0.16305482,0.01236904,0.00720383,-0.00723492,0.00016856,0.00099198,-
 0.00028986,-0.00003298,0.00002108,-0.00003173,0.00056849,0.00006418,-0
 .00239812,-0.00048240,-0.00005012,0.00194001,0.00007021,0.00024490,-0.
 00005125,0.00008099,-0.00013835,-0.00022406,-0.00050589,-0.00050674,-0
 .00027057,-0.00039589,0.00033338,-0.00052715,0.00540642,-0.00472360,-0
 .00091316,-0.08987552,0.02030880,0.20948246,-0.00112945,-0.00045349,-0
 .00028851,-0.00040672,-0.00152988,-0.00169260,-0.00078430,0.00043810,0
 .00027109,-0.01388086,-0.01080109,0.01958841,-0.06025314,0.00419223,0.
 06251150,-0.00777416,0.01334853,0.01656379,-0.00009573,0.00044310,-0.0
 0017955,-0.00005108,0.00003180,0.00018842,0.00005973,-0.00002803,-0.00
 020451,-0.00000813,-0.00002560,-0.00009129,-0.00015366,-0.00005899,0.0
 0010762,0.00004746,-0.00006040,0.00014112,-0.00049507,-0.00014366,0.00
 003568,0.00024041,-0.00029708,0.00018448,-0.00106833,-0.00171242,0.000
 57422,0.08150908,0.00181437,-0.00021555,-0.00032522,-0.00327309,-0.000
 45977,0.00004543,0.00013935,-0.00014346,-0.00051265,-0.01402454,-0.003
 89067,0.01786796,0.00612241,-0.03007215,-0.01038183,0.01407205,-0.0127
 9031,-0.02137498,0.00053164,-0.00004948,-0.00013470,0.00001007,-0.0000
 1346,-0.00008116,-0.00001874,0.00001422,0.00009524,-0.00002474,-0.0000
 0580,0.00005706,0.00015863,-0.00013761,-0.00013205,0.00000575,0.000013
 51,0.00007770,-0.00009183,0.00017432,0.00001325,-0.00041958,-0.0002674
 1,0.00067558,-0.00157136,-0.00169285,0.00032759,-0.00422197,0.04827434
 ,0.00272693,0.00166196,-0.00085220,-0.00409146,-0.00084109,0.00155106,
 0.00035171,-0.00012692,-0.00097413,0.01256781,0.00872441,-0.00789916,0
 .06320723,-0.00849577,-0.17344539,0.01117155,-0.01440144,-0.00838613,0
 .00019828,0.00004922,0.00062788,0.00002991,-0.00003860,-0.00028775,-0.
 00004706,0.00003840,0.00029819,-0.00007923,0.00003416,0.00017643,0.000
 22909,-0.00036633,-0.00021822,-0.00008359,-0.00003760,-0.00010337,-0.0
 0016438,0.00002233,0.00017563,-0.00005608,0.00056706,-0.00002095,0.000
 42218,0.00027884,-0.00009466,-0.08530813,0.01328795,0.21292158,-0.0002
 1380,0.00019946,0.00022094,0.00023243,-0.00015498,-0.00029922,-0.00101
 166,-0.00137849,0.00057002,-0.02500278,-0.01224751,-0.01280771,-0.1332
 1179,0.01174880,-0.08412678,-0.01926663,0.01764218,-0.01140389,-0.0001
 7259,0.00120040,-0.00027678,-0.00005122,0.00006082,0.00035245,0.000088
 80,-0.00005344,-0.00038365,-0.00001656,-0.00002528,-0.00015069,-0.0000
 4209,0.00000394,0.00004578,-0.00023989,-0.00008407,-0.00021882,0.00000
 112,-0.00000952,0.00004860,0.00035225,-0.00052863,-0.00020811,-0.00070
 935,-0.00027436,0.00027737,0.00483196,-0.00037114,-0.00113488,0.174505
 05,0.00034165,-0.00008894,0.00007160,-0.00037149,0.00016154,0.00031681
 ,-0.00189021,-0.00191124,0.00002895,-0.01931071,-0.00364546,-0.0102437
 7,0.01237757,-0.03555680,0.00995803,0.02626889,-0.01217852,0.01637362,
 0.00108957,-0.00230834,-0.00086698,0.00001601,-0.00003356,0.00009724,-
 0.00000049,0.00002624,-0.00009714,-0.00005585,-0.00004328,0.00009054,0
 .00003505,0.00001938,-0.00002954,-0.00025493,-0.00001272,-0.00033733,0
 .00012627,-0.00004303,0.00008075,-0.00098277,-0.00057623,-0.00053369,-
 0.00031378,0.00007993,-0.00000135,-0.00035602,0.00366582,-0.00040288,-
 0.01676571,0.05323961,0.00035632,0.00014810,0.00015442,-0.00043016,-0.
 00003881,0.00002434,0.00056039,0.00031022,0.00003396,-0.00459339,-0.00
 368696,0.00226079,-0.08785579,0.01064164,-0.10660545,-0.00400734,0.005
 92701,0.00307482,-0.00031157,-0.00087732,0.00015566,-0.00007635,-0.000
 06742,-0.00033459,0.00004232,0.00004716,0.00029243,-0.00007316,0.00011
 958,0.00000863,0.00001552,-0.00000479,-0.00002410,-0.00001591,-0.00001
 127,0.00009025,-0.00006575,0.00004135,0.00000098,-0.00003640,-0.000315
 83,0.00045757,0.00028220,0.00028477,0.00037779,-0.01249525,0.00113761,
 -0.02277750,0.10858691,-0.01374431,0.12252524,-0.00004074,0.00000551,0
 .00001541,0.00005070,-0.00001330,-0.00003888,-0.00003681,0.00001916,0.
 00002439,-0.00002167,0.00002837,0.00001596,-0.00003548,0.00001580,-0.0
 0001926,0.00001584,0.00007457,0.00011794,0.00001116,0.00000349,-0.0000
 3169,0.00012984,-0.00020511,-0.00037116,-0.00007681,0.00020572,0.00030
 992,-0.10831721,0.04333700,-0.08800064,-0.00000371,0.00000045,0.000004
 44,0.00000786,-0.00000567,-0.00000747,0.00000898,-0.00000934,-0.000010
 45,0.00001291,-0.00000458,0.00000248,0.00002490,-0.00001547,-0.0000211
 8,0.00001606,-0.00000225,-0.00000373,0.00003226,0.00000028,0.00002389,
 0.11982750,-0.00002908,-0.00000429,0.00003084,0.00004254,-0.00000253,-
 0.00005322,-0.00001728,-0.00001502,0.00005471,-0.00001309,-0.00000005,
 0.00004449,-0.00001001,-0.00001457,0.00003140,-0.00009158,-0.00016447,
 -0.00013105,0.00003199,0.00000888,-0.00001657,-0.00003832,-0.00023705,
 -0.00042960,0.00004670,0.00015639,0.00033521,0.04324156,-0.05133930,0.
 05326524,-0.00000610,0.00000319,0.00000460,0.00000050,0.00000113,-0.00
 001506,0.00000366,0.00001082,-0.00001230,0.00000136,-0.00000555,-0.000
 01776,0.00001660,-0.00001129,-0.00006975,0.00000634,0.00000194,-0.0000
 0921,0.00000412,0.00001530,-0.00003466,-0.05296317,0.04001310,-0.00002
 557,0.00003040,0.00004718,0.00003503,-0.00003853,-0.00007592,0.0000159
 6,0.00005907,0.00004582,-0.00004807,0.00003640,0.00000173,-0.00000455,
 0.00006222,0.00009443,0.00002335,-0.00005645,0.00005511,-0.00001405,0.
 00005012,-0.00003651,-0.00012928,-0.00002238,0.00058708,0.00005033,-0.
 00015344,-0.00059653,-0.08858374,0.05384614,-0.14298647,-0.00000821,-0
 .00000092,0.00000538,-0.00000627,-0.00001543,0.00000048,-0.00001145,-0
 .00001850,-0.00001363,0.00001535,-0.00001594,-0.00000137,0.00000384,-0
 .00003080,-0.00001092,0.00001921,-0.00001096,-0.00004057,0.00003031,-0
 .00001946,-0.00002221,0.10092697,-0.06657352,0.15820685,-0.00002446,-0
 .00002078,-0.00002447,0.00003104,0.00001805,0.00002248,-0.00006234,-0.
 00002599,-0.00001065,0.00002861,-0.00001364,0.00001328,-0.00003173,-0.
 00004873,-0.00008130,-0.00008365,-0.00004869,-0.00010379,0.00005219,-0
 .00004470,0.00002578,0.00015842,-0.00000131,-0.00015116,-0.00014260,0.
 00004567,0.00015960,-0.23018498,0.02881691,0.03529128,0.00000368,0.000
 00095,-0.00000037,0.00001797,0.00000400,-0.00000743,0.00002826,0.00000
 406,0.00000075,-0.00000608,0.00000641,0.00000252,0.00001613,0.00001004
 ,-0.00000539,-0.00000548,0.00000947,0.00003409,-0.00001191,0.00001694,
 0.00001650,-0.01841787,0.00574479,-0.00140859,0.26038160,-0.00003873,0
 .00000387,0.00004217,0.00005460,-0.00001259,-0.00007320,-0.00001885,0.
 00000046,0.00006550,-0.00002885,0.00001569,0.00004461,-0.00001185,0.00
 000642,0.00004743,-0.00006541,-0.00014782,-0.00008776,0.00002058,0.000
 03046,-0.00002935,0.00009086,-0.00031466,-0.00038626,-0.00008681,0.000
 20417,0.00027596,0.02908569,-0.03135568,-0.00225805,-0.00000822,0.0000
 0295,0.00000628,0.00000106,-0.00000268,-0.00001640,0.00000121,0.000006
 40,-0.00001744,0.00000830,-0.00000925,-0.00001483,0.00002466,-0.000020
 68,-0.00007104,0.00001236,-0.00000162,-0.00001894,0.00001665,0.0000069
 3,-0.00002873,0.01043447,0.00621141,0.00171985,-0.03602636,0.01671920,
 -0.00003237,0.00002143,0.00003463,0.00004338,-0.00003154,-0.00006347,-
 0.00001062,0.00005612,0.00003688,-0.00003468,0.00003196,0.00000215,-0.
 00002939,0.00003812,0.00003583,-0.00001069,-0.00001060,0.00009334,0.00
 001575,0.00000832,-0.00003951,-0.00017745,0.00007104,0.00061965,0.0001
 6852,-0.00023053,-0.00057427,0.03605556,-0.00225223,-0.04115541,-0.000
 00637,-0.00000101,0.00000473,-0.00000032,-0.00001617,-0.00000088,0.000
 00186,-0.00002406,-0.00001470,0.00001111,-0.00001146,0.00000198,0.0000
 1162,-0.00002789,-0.00000285,0.00001628,-0.00000568,-0.00002378,0.0000
 2454,-0.00000708,-0.00000241,-0.01646376,0.00466784,0.00426665,-0.0417
 6234,-0.00220805,0.04102186,-0.00005040,-0.00003565,-0.00002725,0.0000
 6603,0.00002703,0.00001379,-0.00010713,-0.00004077,0.00000913,0.000035
 00,-0.00001448,0.00004587,-0.00009560,-0.00009055,-0.00014613,-0.00023
 684,-0.00012569,-0.00010326,0.00011476,-0.00011290,-0.00000451,0.00004
 411,-0.00014902,-0.00024976,-0.00000899,0.00007522,0.00023212,-0.06499
 237,-0.01637404,0.06903631,0.00000257,0.00000291,0.00000188,0.00002426
 ,0.00000335,-0.00001818,0.00004633,0.00000367,-0.00000835,-0.00000940,
 0.00000632,-0.00000226,0.00004157,-0.00000403,-0.00005112,-0.00000430,
 0.00001905,0.00005489,-0.00000863,0.00004522,0.00002454,0.00696611,0.0
 0395946,-0.01086448,-0.01183174,-0.00350480,0.02223434,0.07006862,-0.0
 0004063,-0.00000609,0.00003729,0.00005935,-0.00000310,-0.00006685,-0.0
 0002755,-0.00001390,0.00007125,-0.00001909,0.00000693,0.00005556,-0.00
 003159,-0.00000809,0.00004804,-0.00017799,-0.00051395,-0.00039962,0.00
 007336,0.00003815,-0.00002108,-0.00005282,-0.00012547,0.00005068,0.000
 01086,0.00000529,-0.00006389,-0.01663673,-0.03933605,0.04467971,-0.000
 00762,0.00000408,0.00000629,0.00000221,-0.00000123,-0.00001823,0.00000
 738,0.00001185,-0.00001823,0.00000135,-0.00001015,-0.00001915,0.000022
 78,-0.00002900,-0.00008841,0.00000955,0.00000346,-0.00001052,0.0000072
 3,0.00001758,-0.00005550,-0.00080218,0.00528977,0.01129142,0.00139797,
 0.00865757,0.00000625,0.01588599,0.02594021,-0.00002613,0.00010210,0.0
 0011602,0.00002837,-0.00011663,-0.00017214,0.00010761,0.00020287,0.000
 06104,-0.00014866,0.00012887,-0.00007460,0.00003527,0.00023721,0.00018
 844,0.00054741,0.00062238,0.00092183,-0.00016286,0.00016028,-0.0001704
 0,-0.00015336,0.00035266,0.00084188,0.00016613,-0.00025889,-0.00074786
 ,0.06867548,0.04380468,-0.19456731,-0.00001856,-0.00000703,0.00001002,
 -0.00003027,-0.00004205,0.00002476,-0.00006172,-0.00007265,-0.00002425
 ,0.00005421,-0.00002994,0.00001980,-0.00001870,-0.00005991,0.00009076,
 0.00006535,-0.00004637,-0.00013553,0.00011372,-0.00007731,0.00002969,0
 .00350753,0.00885940,-0.01955121,0.00803496,0.00288834,-0.00412951,-0.
 08012603,-0.05546236,0.21873078,-0.00004100,0.00028562,0.00031725,0.00
 000133,-0.00032947,-0.00046979,0.00049490,0.00059029,0.00007016,-0.000
 40036,0.00049987,-0.00017853,0.00244984,-0.00117434,-0.00275371,0.0226
 2185,0.00295607,0.02397286,-0.00306472,0.00202534,0.00282170,-0.000040
 39,0.00001366,0.00028332,0.00008601,0.00004078,-0.00039027,-0.00029519
 ,-0.00044405,0.00182283,-0.00005493,-0.00001800,0.00002915,-0.00011311
 ,-0.00006488,0.00008374,-0.00031909,-0.00016690,-0.00003636,0.00021124
 ,-0.00001965,0.00004142,-0.00010770,-0.00002534,0.00034158,0.00046559,
 -0.00091861,-0.00037122,0.00030152,-0.00024804,-0.00005369,-0.00015886
 ,0.00006582,-0.00013204,0.00014049,0.00000711,-0.00014856,0.00015732,0
 .00029961,-0.00117459,0.07205041,0.00027206,-0.00067107,-0.00088099,-0
 .00025913,0.00077267,0.00127677,-0.00077483,-0.00137795,-0.00037199,0.
 00099463,-0.00107490,0.00039246,-0.00130216,-0.00087183,-0.00749274,0.
 00105458,-0.09397360,-0.06817112,0.00055921,-0.00233625,0.00194821,0.0
 0031505,-0.00012597,-0.00096320,-0.00038191,0.00006515,0.00111277,0.00
 089215,0.00084019,-0.00085366,0.00013345,0.00004245,-0.00008402,0.0001
 9214,0.00020608,-0.00014136,0.00054562,0.00045885,0.00016283,-0.000423
 33,0.00012528,-0.00011100,0.00008311,0.00024779,-0.00066762,-0.0004720
 2,-0.00075427,0.00090637,-0.00152515,0.00045196,-0.00066116,-0.0000350
 2,-0.00021893,0.00017759,-0.00024740,-0.00012790,-0.00000746,-0.001088
 77,-0.00051679,0.00189574,-0.12500004,0.36460995,0.00002580,-0.0001841
 4,-0.00018497,0.00000453,0.00020401,0.00024341,-0.00021947,-0.00029682
 ,-0.00001160,0.00090568,-0.00104797,-0.00018247,-0.00365310,-0.0048957
 3,-0.00328289,0.02240180,-0.06674848,-0.01846449,0.00185015,0.00361472
 ,0.00040060,0.00006241,0.00000220,-0.00005887,-0.00009838,-0.00004431,
 0.00013621,0.00153738,0.00035065,-0.00285186,0.00002629,0.00001480,-0.
 00001198,0.00004886,0.00005722,-0.00005692,0.00011241,0.00010498,0.000
 00223,-0.00025352,-0.00010914,-0.00002967,0.00008858,0.00007682,-0.000
 29423,0.00003349,-0.00050274,0.00015094,-0.00067947,0.00009103,-0.0006
 2272,-0.00000062,-0.00003324,0.00023972,-0.00020630,0.00006509,0.00003
 387,-0.00048338,-0.00007833,-0.00035499,-0.01690486,0.11141742,0.07234
 718,0.00005757,-0.00022143,-0.00006415,0.00001740,0.00028591,0.0001863
 9,-0.00026822,-0.00066432,0.00022527,-0.00065874,0.00058524,0.00005871
 ,0.00675002,0.00214770,0.00932799,-0.09715897,-0.00701336,-0.08948741,
 -0.00544550,-0.01376221,-0.03156810,-0.00006900,0.00019229,0.00030339,
 0.00004562,-0.00016679,-0.00022440,0.00006658,-0.00004190,-0.00022460,
 0.00002341,0.00003322,-0.00000536,0.00005335,0.00003601,-0.00007141,0.
 00024644,0.00026943,-0.00003376,0.00002588,0.00009857,-0.00006140,0.00
 001008,-0.00025573,-0.00023181,-0.00105955,0.00205222,0.00034705,-0.00
 038574,0.00023141,0.00010914,0.00000515,0.00000398,0.00011643,-0.00005
 568,0.00003314,0.00009318,-0.00022047,0.00001948,0.00058518,-0.0943665
 8,0.12644340,-0.00460124,0.19237382,-0.00037349,0.00076895,0.00107179,
 0.00041645,-0.00092905,-0.00163713,0.00106552,0.00177308,0.00063666,-0
 .00002463,-0.00042082,-0.00082781,0.00167129,-0.03777473,-0.02215461,-
 0.01624818,-0.03686225,-0.02804964,-0.00173398,0.00972819,-0.00479290,
 -0.00036676,0.00033700,0.00162778,0.00049671,-0.00016747,-0.00182821,-
 0.00130831,-0.00108400,0.00206673,-0.00017490,-0.00004053,0.00011066,-
 0.00024833,-0.00025782,0.00018452,-0.00068865,-0.00056091,-0.00023042,
 0.00029248,-0.00045925,0.00017418,-0.00011503,-0.00032501,0.00072802,0
 .00167945,-0.00165361,-0.00082227,0.00253599,-0.00128702,0.00086892,-0
 .00006792,0.00030183,-0.00031683,0.00040289,0.00012793,-0.00006729,0.0
 0151266,0.00059227,-0.00308068,0.12162831,-0.26578249,-0.04206624,-0.1
 1032042,0.33398808,0.00013492,0.00038240,0.00051585,-0.00017879,-0.000
 33433,-0.00055798,0.00075870,0.00037298,0.00027935,-0.00048757,0.00177
 739,-0.00017093,0.00951369,-0.02407652,-0.00633030,-0.09633541,-0.0181
 4313,-0.14501994,-0.02284548,-0.01837090,-0.02577026,-0.00011928,0.000
 07399,0.00056717,0.00018818,-0.00000624,-0.00068646,-0.00032929,-0.000
 31071,0.00060518,-0.00005898,-0.00001111,0.00002446,-0.00013896,-0.000
 07053,0.00010783,-0.00028032,0.00000412,-0.00003158,0.00036212,-0.0000
 4671,0.00006981,-0.00021244,-0.00014318,0.00046226,-0.00004281,-0.0000
 7385,-0.00064272,0.00142058,-0.00074911,0.00090237,0.00001871,0.000100
 78,-0.00021519,0.00016086,0.00005348,-0.00014523,0.00043345,0.00005686
 ,-0.00110747,-0.00716221,-0.03890044,-0.04714231,0.11521257,0.09842999
 ,0.22429093\\-0.00000088,0.,0.00000018,0.00000054,0.00000003,0.0000000
 5,0.00000021,-0.00000005,-0.00000002,-0.00000007,0.00000004,-0.0000001
 1,-0.00000004,0.00000004,0.,0.00000013,0.00000006,0.00000002,0.0000003
 4,-0.00000013,0.00000029,-0.00000025,0.00000005,0.00000082,0.00000025,
 -0.00000006,-0.00000082,-0.00000002,0.,0.,0.00000014,0.00000005,0.0000
 0011,0.00000012,0.00000008,-0.00000006,0.00000010,-0.00000011,0.000000
 04,-0.00000010,0.00000010,-0.00000005,0.00000010,0.,-0.00000018,-0.000
 00011,-0.00000001,0.00000021,-0.00000020,0.00000005,-0.00000015,-0.000
 00008,0.00000004,-0.00000009,0.00000015,-0.00000002,-0.00000003,-0.000
 00005,-0.00000003,0.00000011,0.00000007,-0.00000008,0.00000003,-0.0000
 0035,-0.00000005,-0.00000035\\\@


 EDUCATION WITHOUT COMMON SENSE IS A LOAD OF BOOKS ON THE BACK OF AN ASS.
 Job cpu time:       0 days  0 hours  1 minutes  9.1 seconds.
 File lengths (MBytes):  RWF=     58 Int=      0 D2E=      0 Chk=      2 Scr=      1
 Normal termination of Gaussian 09 at Wed Feb 17 09:07:50 2021.
