16
Properties=species:S:1:pos:R:3 energy=-11452.141623911575 pbc="F F F"
O        0.65503400       0.20625300       0.74146500
O        1.87641900       0.39549400       0.76441300
C        2.65946700      -0.60262800       1.14172300
H        2.26974600      -1.56888400       1.41877900
C        4.10458500      -0.26574900       1.13971000
C        4.91629000      -1.25019200       0.28236000
C        4.64046700      -1.11647300      -1.21378400
C        5.28074700       0.09907500      -1.84494900
O        5.42701000       0.19329400      -3.04176800
H        4.26912300       0.77816800       0.79333600
H        4.48092900      -0.28673300       2.18939300
H        5.99725200      -1.10427600       0.48550700
H        4.69750700      -2.29086200       0.60195100
H        4.98236100      -2.02850300      -1.75153600
H        3.54630400      -1.08688300      -1.41670600
H        5.60299000       0.89505700      -1.15547000
