3
Properties=species:S:1:pos:R:3 energy=-2079.8622357347335 pbc="F F F"
O        1.05856600       0.03633400       0.08628900
H        0.75734800       0.63860600       0.75513100
H        2.00754300       0.04705400       0.09819400
