 Entering Gaussian System, Link 0=g09
 Initial command:
 /cm/shared/apps/Gaussian09/g09/l1.exe "/local/Gau-121137.inp" -scrdir="/local/"
 Entering Link 1 = /cm/shared/apps/Gaussian09/g09/l1.exe PID=    121138.
  
 Copyright (c) 1988,1990,1992,1993,1995,1998,2003,2009,2013,
            Gaussian, Inc.  All Rights Reserved.
  
 This is part of the Gaussian(R) 09 program.  It is based on
 the Gaussian(R) 03 system (copyright 2003, Gaussian, Inc.),
 the Gaussian(R) 98 system (copyright 1998, Gaussian, Inc.),
 the Gaussian(R) 94 system (copyright 1995, Gaussian, Inc.),
 the Gaussian 92(TM) system (copyright 1992, Gaussian, Inc.),
 the Gaussian 90(TM) system (copyright 1990, Gaussian, Inc.),
 the Gaussian 88(TM) system (copyright 1988, Gaussian, Inc.),
 the Gaussian 86(TM) system (copyright 1986, Carnegie Mellon
 University), and the Gaussian 82(TM) system (copyright 1983,
 Carnegie Mellon University). Gaussian is a federally registered
 trademark of Gaussian, Inc.
  
 This software contains proprietary and confidential information,
 including trade secrets, belonging to Gaussian, Inc.
  
 This software is provided under written license and may be
 used, copied, transmitted, or stored only in accord with that
 written license.
  
 The following legend is applicable only to US Government
 contracts under FAR:
  
                    RESTRICTED RIGHTS LEGEND
  
 Use, reproduction and disclosure by the US Government is
 subject to restrictions as set forth in subparagraphs (a)
 and (c) of the Commercial Computer Software - Restricted
 Rights clause in FAR 52.227-19.
  
 Gaussian, Inc.
 340 Quinnipiac St., Bldg. 40, Wallingford CT 06492
  
  
 ---------------------------------------------------------------
 Warning -- This program may not be used in any manner that
 competes with the business of Gaussian, Inc. or will provide
 assistance to any competitor of Gaussian, Inc.  The licensee
 of this program is prohibited from giving any competitor of
 Gaussian, Inc. access to this program.  By using this program,
 the user acknowledges that Gaussian, Inc. is engaged in the
 business of creating and licensing software in the field of
 computational chemistry and represents and warrants to the
 licensee that it is not a competitor of Gaussian, Inc. and that
 it will not use this program in any manner prohibited above.
 ---------------------------------------------------------------
  

 Cite this work as:
 Gaussian 09, Revision D.01,
 M. J. Frisch, G. W. Trucks, H. B. Schlegel, G. E. Scuseria, 
 M. A. Robb, J. R. Cheeseman, G. Scalmani, V. Barone, B. Mennucci, 
 G. A. Petersson, H. Nakatsuji, M. Caricato, X. Li, H. P. Hratchian, 
 A. F. Izmaylov, J. Bloino, G. Zheng, J. L. Sonnenberg, M. Hada, 
 M. Ehara, K. Toyota, R. Fukuda, J. Hasegawa, M. Ishida, T. Nakajima, 
 Y. Honda, O. Kitao, H. Nakai, T. Vreven, J. A. Montgomery, Jr., 
 J. E. Peralta, F. Ogliaro, M. Bearpark, J. J. Heyd, E. Brothers, 
 K. N. Kudin, V. N. Staroverov, T. Keith, R. Kobayashi, J. Normand, 
 K. Raghavachari, A. Rendell, J. C. Burant, S. S. Iyengar, J. Tomasi, 
 M. Cossi, N. Rega, J. M. Millam, M. Klene, J. E. Knox, J. B. Cross, 
 V. Bakken, C. Adamo, J. Jaramillo, R. Gomperts, R. E. Stratmann, 
 O. Yazyev, A. J. Austin, R. Cammi, C. Pomelli, J. W. Ochterski, 
 R. L. Martin, K. Morokuma, V. G. Zakrzewski, G. A. Voth, 
 P. Salvador, J. J. Dannenberg, S. Dapprich, A. D. Daniels, 
 O. Farkas, J. B. Foresman, J. V. Ortiz, J. Cioslowski, 
 and D. J. Fox, Gaussian, Inc., Wallingford CT, 2013.
 
 ******************************************
 Gaussian 09:  ES64L-G09RevD.01 24-Apr-2013
                16-Feb-2021 
 ******************************************
 %nprocshared=1
 Will use up to    1 processors via shared memory.
 ----------------------------------------------------------------------
 #P upm6 scf=qc opt(calcall, ts, noeigentest, cartesian,maxcycle=100) N
 oSymm, guess=mix
 ----------------------------------------------------------------------
 1/5=1,6=100,10=4,11=1,14=-1,18=10,26=1,38=1/1,3;
 2/12=2,15=1,17=6,18=5,29=2,40=1/2;
 3/5=2,16=1,25=1,41=3900000,71=2,116=2,140=1/1,2,3;
 4/13=-1,35=1/1;
 5/5=2,8=3,35=1,38=5/8;
 8/6=4,10=90,11=11/1;
 11/6=1,8=1,9=11,15=111,16=1,31=1/1,2,10;
 10/6=1,31=1/2;
 6/7=2,8=2,9=2,10=2,18=1,28=1/1;
 7/7=1,10=1,25=1,30=1/1,2,3,16;
 1/5=1,6=100,10=4,11=1,14=-1,18=10,26=1/3(3);
 2/15=1,29=1/2;
 7/7=1,8=1,9=1,25=1,30=1,44=-1/16;
 99/12=1/99;
 2/15=1,29=1/2;
 3/5=2,16=1,25=1,41=3900000,71=2,116=2,135=20,140=1/1,2,3;
 4/5=5,16=3,35=1/1;
 5/5=2,8=3,35=1,38=5/8;
 8/6=4,10=90,11=11/1;
 11/6=1,8=1,9=11,15=111,16=1,31=1/1,2,10;
 10/6=1,31=1/2;
 7/7=1,10=1,25=1,30=1/1,2,3,16;
 1/5=1,6=100,10=4,11=1,14=-1,18=10,26=1/3(-8);
 2/15=1,29=1/2;
 6/7=2,8=2,9=2,10=2,18=1,19=2,28=1/1;
 7/7=1,8=1,9=1,25=1,30=1,44=-1/16;
 99/12=1/99;
 Leave Link    1 at Tue Feb 16 09:45:39 2021, MaxMem=           0 cpu:         0.0
 (Enter /cm/shared/apps/Gaussian09/g09/l101.exe)
 ------------------------------
 Gaussian input prepared by ASE
 ------------------------------
 Symbolic Z-matrix:
 Charge =  0 Multiplicity = 1
 C                    -0.24394   0.53386   1.61845 
 C                     0.32164  -0.39159   0.53487 
 C                    -0.4865   -0.71103  -0.61688 
 C                     1.32971   0.30971  -3.24305 
 C                    -1.93194   0.76924   3.48738 
 C                    -1.3541   -0.14229   2.42892 
 H                     0.56393   0.86203   2.30349 
 H                    -0.63224   1.46828   1.165 
 H                     1.24978   0.07381   0.08263 
 H                     0.72116  -1.32927   0.98632 
 H                    -1.40612  -0.16509  -0.76487 
 H                     1.07164   1.92931  -2.11086 
 C                     1.40998  -1.1537   -3.05937 
 H                    -2.73155   0.31921   4.09981 
 H                    -2.16765  -0.48227   1.75475 
 H                    -0.97052  -1.06606   2.9095 
 H                     0.66678  -1.51267  -2.30296 
 H                     2.39682  -1.465    -2.68611 
 H                     1.21856  -1.68917  -4.00098 
 O                    -1.56302   1.90708   3.66754 
 O                     1.12874   0.94235  -2.01935 
 O                     1.40886   0.99325  -4.23422 
 
 NAtoms=     22 NQM=       22 NQMF=       0 NMMI=      0 NMMIF=      0
                NMic=       0 NMicF=      0.
                    Isotopes and Nuclear Properties:
 (Nuclear quadrupole moments (NQMom) in fm**2, nuclear magnetic moments (NMagM)
  in nuclear magnetons)

  Atom         1           2           3           4           5           6           7           8           9          10
 IAtWgt=          12          12          12          12          12          12           1           1           1           1
 AtmWgt=  12.0000000  12.0000000  12.0000000  12.0000000  12.0000000  12.0000000   1.0078250   1.0078250   1.0078250   1.0078250
 NucSpn=           0           0           0           0           0           0           1           1           1           1
 AtZEff=   0.0000000   0.0000000   0.0000000   0.0000000   0.0000000   0.0000000   0.0000000   0.0000000   0.0000000   0.0000000
 NQMom=    0.0000000   0.0000000   0.0000000   0.0000000   0.0000000   0.0000000   0.0000000   0.0000000   0.0000000   0.0000000
 NMagM=    0.0000000   0.0000000   0.0000000   0.0000000   0.0000000   0.0000000   2.7928460   2.7928460   2.7928460   2.7928460
 AtZNuc=   6.0000000   6.0000000   6.0000000   6.0000000   6.0000000   6.0000000   1.0000000   1.0000000   1.0000000   1.0000000

  Atom        11          12          13          14          15          16          17          18          19          20
 IAtWgt=           1           1          12           1           1           1           1           1           1          16
 AtmWgt=   1.0078250   1.0078250  12.0000000   1.0078250   1.0078250   1.0078250   1.0078250   1.0078250   1.0078250  15.9949146
 NucSpn=           1           1           0           1           1           1           1           1           1           0
 AtZEff=   0.0000000   0.0000000   0.0000000   0.0000000   0.0000000   0.0000000   0.0000000   0.0000000   0.0000000   0.0000000
 NQMom=    0.0000000   0.0000000   0.0000000   0.0000000   0.0000000   0.0000000   0.0000000   0.0000000   0.0000000   0.0000000
 NMagM=    2.7928460   2.7928460   0.0000000   2.7928460   2.7928460   2.7928460   2.7928460   2.7928460   2.7928460   0.0000000
 AtZNuc=   1.0000000   1.0000000   6.0000000   1.0000000   1.0000000   1.0000000   1.0000000   1.0000000   1.0000000   8.0000000

  Atom        21          22
 IAtWgt=          16          16
 AtmWgt=  15.9949146  15.9949146
 NucSpn=           0           0
 AtZEff=   0.0000000   0.0000000
 NQMom=    0.0000000   0.0000000
 NMagM=    0.0000000   0.0000000
 AtZNuc=   8.0000000   8.0000000
 Leave Link  101 at Tue Feb 16 09:45:39 2021, MaxMem=    33554432 cpu:         0.0
 (Enter /cm/shared/apps/Gaussian09/g09/l103.exe)

 GradGradGradGradGradGradGradGradGradGradGradGradGradGradGradGradGradGrad
 Berny optimization.
 Initialization pass.
 No Z-matrix variables, so optimization will use Cartesian coordinates.
 Trust Radius=3.00D-01 FncErr=1.00D-07 GrdErr=1.00D-07
 Number of steps in this run=    100 maximum allowed number of steps=    132.
 Search for a saddle point of order  1.
 GradGradGradGradGradGradGradGradGradGradGradGradGradGradGradGradGradGrad

 Leave Link  103 at Tue Feb 16 09:45:39 2021, MaxMem=    33554432 cpu:         0.0
 (Enter /cm/shared/apps/Gaussian09/g09/l202.exe)
 ---------------------------------------------------------------------------------------------------
                            Z-MATRIX (ANGSTROMS AND DEGREES)
   CD    Cent   Atom    N1       Length/X        N2       Alpha/Y        N3        Beta/Z          J
 ---------------------------------------------------------------------------------------------------
      1      1  C        0  -0.243944          0.533861          1.618452
      2      2  C        0   0.321644         -0.391586          0.534872
      3      3  C        0  -0.486502         -0.711033         -0.616879
      4      4  C        0   1.329713          0.309710         -3.243050
      5      5  C        0  -1.931944          0.769245          3.487377
      6      6  C        0  -1.354100         -0.142289          2.428921
      7      7  H        0   0.563931          0.862033          2.303489
      8      8  H        0  -0.632242          1.468278          1.164998
      9      9  H        0   1.249781          0.073808          0.082634
     10     10  H        0   0.721161         -1.329269          0.986316
     11     11  H        0  -1.406125         -0.165092         -0.764874
     12     12  H        0   1.071641          1.929308         -2.110855
     13     13  C        0   1.409978         -1.153705         -3.059367
     14     14  H        0  -2.731551          0.319211          4.099806
     15     15  H        0  -2.167654         -0.482273          1.754750
     16     16  H        0  -0.970522         -1.066056          2.909500
     17     17  H        0   0.666783         -1.512666         -2.302965
     18     18  H        0   2.396820         -1.465003         -2.686111
     19     19  H        0   1.218555         -1.689170         -4.000984
     20     20  O        0  -1.563023          1.907079          3.667539
     21     21  O        0   1.128737          0.942354         -2.019352
     22     22  O        0   1.408864          0.993254         -4.234217
 ---------------------------------------------------------------------------------------------------
                         Z-Matrix orientation:                         
 ---------------------------------------------------------------------
 Center     Atomic      Atomic             Coordinates (Angstroms)
 Number     Number       Type             X           Y           Z
 ---------------------------------------------------------------------
      1          6           0       -0.243944    0.533861    1.618452
      2          6           0        0.321644   -0.391586    0.534872
      3          6           0       -0.486502   -0.711033   -0.616879
      4          6           0        1.329713    0.309710   -3.243050
      5          6           0       -1.931944    0.769245    3.487377
      6          6           0       -1.354100   -0.142289    2.428921
      7          1           0        0.563931    0.862033    2.303489
      8          1           0       -0.632242    1.468278    1.164998
      9          1           0        1.249781    0.073808    0.082634
     10          1           0        0.721161   -1.329269    0.986316
     11          1           0       -1.406125   -0.165092   -0.764874
     12          1           0        1.071641    1.929308   -2.110855
     13          6           0        1.409978   -1.153705   -3.059367
     14          1           0       -2.731551    0.319211    4.099806
     15          1           0       -2.167654   -0.482273    1.754750
     16          1           0       -0.970522   -1.066056    2.909500
     17          1           0        0.666783   -1.512666   -2.302965
     18          1           0        2.396820   -1.465003   -2.686111
     19          1           0        1.218555   -1.689170   -4.000984
     20          8           0       -1.563023    1.907079    3.667539
     21          8           0        1.128737    0.942354   -2.019352
     22          8           0        1.408864    0.993254   -4.234217
 ---------------------------------------------------------------------
                    Distance matrix (angstroms):
                    1          2          3          4          5
     1  C    0.000000
     2  C    1.533130   0.000000
     3  C    2.570078   1.442802   0.000000
     4  C    5.114767   3.972495   3.352212   0.000000
     5  C    2.529353   3.891461   4.596242   7.493212   0.000000
     6  C    1.531824   2.541198   3.217622   6.291137   1.511663
     7  H    1.108889   2.181345   3.479439   5.626329   2.763981
     8  H    1.108842   2.183129   2.818816   4.962100   2.751603
     9  H    2.191255   1.132497   2.029772   3.334998   4.711611
    10  H    2.191410   1.114749   2.100214   4.576475   4.206902
    11  H    2.742160   2.173896   1.079657   3.721774   4.385329
    12  H    4.193539   3.598461   3.410451   1.992879   6.458132
    13  C    5.240737   3.831951   3.123835   1.477079   7.597765
    14  H    3.520140   4.747208   5.324356   8.391156   1.103165
    15  H    2.179855   2.773613   2.916029   6.151164   2.150315
    16  H    2.180471   2.786299   3.577103   6.711012   2.150953
    17  H    4.516105   3.070710   2.194440   2.155061   6.744520
    18  H    5.431239   3.979110   3.628187   2.144412   7.863969
    19  H    6.217622   4.802308   3.913584   2.140640   8.487932
    20  O    2.797223   4.318499   5.135139   7.660010   1.209640
    21  O    3.909570   2.992467   2.703630   1.392144   6.302523
    22  O    6.098898   5.083704   4.425172   1.206612   8.416305
                    6          7          8          9         10
     6  C    0.000000
     7  H    2.168695   0.000000
     8  H    2.170831   1.759127   0.000000
     9  H    3.511688   2.454360   2.580323   0.000000
    10  H    2.792264   2.561536   3.112860   1.750630   0.000000
    11  H    3.194300   3.788266   2.644088   2.798067   2.991207
    12  H    5.548451   4.569823   3.721153   2.878543   4.509283
    13  C    6.227712   5.791305   5.375008   3.377073   4.107657
    14  H    2.214094   3.792310   3.786893   5.661175   4.932801
    15  H    1.109940   3.093515   2.551461   3.845005   3.106951
    16  H    1.109700   2.537582   3.095250   3.770969   2.574822
    17  H    5.324720   5.183550   4.753973   2.923674   3.294839
    18  H    6.479392   5.802645   5.710551   3.368915   4.038933
    19  H    7.096131   6.832536   6.331058   4.448034   5.024947
    20  O    2.403691   2.734354   2.705848   4.911649   4.783346
    21  O    5.208461   4.360323   3.676646   2.277580   3.789516
    22  O    7.302112   6.593386   5.791656   4.416548   5.755086
                   11         12         13         14         15
    11  H    0.000000
    12  H    3.512478   0.000000
    13  C    3.764636   3.243319   0.000000
    14  H    5.065217   7.458486   8.400923   0.000000
    15  H    2.651233   5.590319   6.035395   2.541584   0.000000
    16  H    3.808217   6.192464   6.426651   2.537127   1.762775
    17  H    2.911808   3.471023   1.119525   7.476625   5.055768
    18  H    4.454583   3.688952   1.100038   8.690931   6.443712
    19  H    4.436684   4.085040   1.100004   9.233620   6.786124
    20  O    4.895385   6.350732   7.966078   2.018326   3.119832
    21  O    3.037380   0.992830   2.356733   7.261834   5.209569
    22  O    4.615438   2.344906   2.447388   9.330237   7.129964
                   16         17         18         19         20
    16  H    0.000000
    17  H    5.481790   0.000000
    18  H    6.542860   1.772598   0.000000
    19  H    7.275653   1.794122   1.779733   0.000000
    20  O    3.124934   7.232815   8.210979   8.914956   0.000000
    21  O    5.721380   2.514152   2.801423   3.295428   6.365297
    22  O    7.806083   3.249624   3.068505   2.699262   8.491463
                   21         22
    21  O    0.000000
    22  O    2.233090   0.000000
 Symmetry turned off by external request.
 Stoichiometry    C7H12O3
 Framework group  C1[X(C7H12O3)]
 Deg. of freedom    60
 Full point group                 C1      NOp   1
 Rotational constants (GHZ):      3.5522690      0.3682712      0.3465251
 Leave Link  202 at Tue Feb 16 09:45:39 2021, MaxMem=    33554432 cpu:         0.0
 (Enter /cm/shared/apps/Gaussian09/g09/l301.exe)
 Standard basis: VSTO-6G (5D, 7F)
 Ernie: Thresh=  0.10000D-02 Tol=  0.10000D-05 Strict=F.
  NNHCO=     0 NNPyr=     0 NCTC=     0               EPep=         0.000000000
    EC=       239.727149039  ECS=         4.182204187   EG=         0.351093052
   EHC=         0.001385191  EAt=       -66.250074573  AtH=         3.187411664
 EPDDG=         0.000000000  ECC=       244.261831469 EAtT=        69.437486237
    52 basis functions,   312 primitive gaussians,    52 cartesian basis functions
    29 alpha electrons       29 beta electrons
       nuclear repulsion energy       313.6993177062 Hartrees.
 IExCor=    0 DFT=F Ex=HF Corr=None ExCW=0 ScaHFX=  1.000000
 ScaDFX=  1.000000  1.000000  1.000000  1.000000 ScalE2=  1.000000  1.000000
 IRadAn=      0 IRanWt=     -1 IRanGd=            0 ICorTp=0 IEmpDi=  4
 Integral buffers will be    131072 words long.
 Regular integral format.
 Two-electron integral symmetry is turned off.
 Leave Link  301 at Tue Feb 16 09:45:39 2021, MaxMem=    33554432 cpu:         0.0
 (Enter /cm/shared/apps/Gaussian09/g09/l302.exe)
 Do NDO integrals.
 NPDir=0 NMtPBC=     1 NCelOv=     1 NCel=       1 NClECP=     1 NCelD=      1
         NCelK=      1 NCelE2=     1 NClLst=     1 CellRange=     0.0.
 One-electron integrals computed using PRISM.
 NBasis=    52 RedAO= F EigKep=  0.00D+00  NBF=    52
 NBsUse=    52 1.00D-04 EigRej=  0.00D+00 NBFU=    52
 Leave Link  302 at Tue Feb 16 09:45:39 2021, MaxMem=    33554432 cpu:         0.1
 (Enter /cm/shared/apps/Gaussian09/g09/l303.exe)
 DipDrv:  MaxL=1.
 Leave Link  303 at Tue Feb 16 09:45:39 2021, MaxMem=    33554432 cpu:         0.0
 (Enter /cm/shared/apps/Gaussian09/g09/l401.exe)
 Simple Huckel Guess.
 JPrj=0 DoOrth=F DoCkMO=T.
 Mixing orbitals, IMix= 1 IMixAn=  0 NRI=1 NE=   29 Coef=  7.07106781D-01  7.07106781D-01
 Mixing orbitals, IMix= 1 IMixAn=  0 NRI=1 NE=   29 Coef= -7.07106781D-01  7.07106781D-01
 Initial guess <Sx>= 0.0000 <Sy>= 0.0000 <Sz>= 0.0000 <S**2>= 1.0000 S= 0.6180
 Leave Link  401 at Tue Feb 16 09:45:39 2021, MaxMem=    33554432 cpu:         0.0
 (Enter /cm/shared/apps/Gaussian09/g09/l508.exe)
 Direct SCF.
 Tight linear equation convergence will be used.
 UPM6 wavefunction.
 Quadratic Convergence SCF Method.
 Line search only if initial step raises energy.
 Two-electron integral symmetry not used.
 ReadGW:  IGet=1 IStart=       59293 Next=       59293 LGW=           0.
 Keep J ints in memory in canonical form, NReq=905730.
 FoFCou: FMM=F IPFlag=           0 FMFlag=           0 FMFlg1=           0
         NFxFlg=           0 DoJE=F BraDBF=F KetDBF=F FulRan=T
         wScrn=  0.000000 ICntrl=     600 IOpCl=  2 I1Cent=           0 NGrid=           0
         NMat0=    1 NMatS0=    112 NMatT0=    0 NMatD0=    1 NMtDS0=    0 NMtDT0=    0
 Symmetry not used in FoFCou.
 Iteration   1 EE= 0.337233683892066                                    Grad=4.610D-01 Max rot=    5.3931 deg.
 Gradient too large for Newton-Raphson -- use scaled steepest descent instead.
 Alpha Gap=     0.320 HL deriv= 7.40D-02
  Beta Gap=     0.345 HL deriv= 6.91D-02
     ILin= 1 X=0.000D+00 Y= 3.372336838921D-01 DE= 0.00D+00 F= -5.17D-01
     ILin= 2 X=3.000D-01 Y= 1.963081501773D-01 DE=-1.41D-01 F= -4.22D-01
     ILin= 3 X=5.000D-01 Y= 1.184549780332D-01 DE=-2.19D-01 F= -3.56D-01
     ILin= 4 X=8.000D-01 Y= 2.689309751815D-02 DE=-3.10D-01 F= -2.53D-01
     ILin= 5 X=1.200D+00 Y=-4.599731353335D-02 DE=-3.83D-01 F= -1.10D-01
     ILin= 6 X=1.900D+00 Y=-3.041495494438D-02 DE=-3.68D-01 F=  1.57D-01
     An  expanding polynomial of degree  6 produced  1.4933
 Iteration   2 EE=-0.621740188214517E-01 Delta-E=       -0.399407702714 Grad=1.339D-01 Max rot=    1.7372 deg.
 Gradient too large for Newton-Raphson -- use scaled steepest descent instead.
 Alpha Gap=     0.359 HL deriv= 4.49D-02
  Beta Gap=     0.371 HL deriv= 3.96D-02
     ILin= 1 X=0.000D+00 Y=-6.217401882145D-02 DE= 0.00D+00 F= -4.09D-02
     ILin= 2 X=7.000D-01 Y=-8.387182484000D-02 DE=-2.17D-02 F= -2.11D-02
     ILin= 3 X=1.200D+00 Y=-9.083717608758D-02 DE=-2.87D-02 F= -6.78D-03
     ILin= 4 X=2.200D+00 Y=-8.322868294994D-02 DE=-2.11D-02 F=  2.20D-02
     An  expanding polynomial of degree  4 produced  1.4363
 Iteration   3 EE=-0.916367370184048E-01 Delta-E=       -0.029462718197 Grad=4.572D-02 Max rot=    0.6590 deg.
 Gradient too large for Newton-Raphson -- use scaled steepest descent instead.
 Alpha Gap=     0.362 HL deriv= 3.17D-02
  Beta Gap=     0.375 HL deriv= 2.42D-02
     ILin= 1 X=0.000D+00 Y=-9.163673701840D-02 DE= 0.00D+00 F= -5.96D-03
     ILin= 2 X=1.500D+00 Y=-9.607561007226D-02 DE=-4.44D-03 F=  4.52D-05
     Accept linear search using points  1 and  2.
     An  expanding polynomial of degree  2 produced  1.4962
     Minimum is close to point  2 DX= -3.82D-03 DF= -5.74D-08 DXR=  2.55D-03 DFR=  1.29D-05 which will be used.
 Iteration   4 EE=-0.960756100722620E-01 Delta-E=       -0.004438873054 Grad=2.473D-02 Max rot=    0.5117 deg.
 Gradient too large for Newton-Raphson -- use scaled steepest descent instead.
 Alpha Gap=     0.364 HL deriv= 2.45D-02
  Beta Gap=     0.375 HL deriv= 1.73D-02
     ILin= 1 X=0.000D+00 Y=-9.607561007226D-02 DE= 0.00D+00 F= -1.84D-03
     ILin= 2 X=1.500D+00 Y=-9.761705793983D-02 DE=-1.54D-03 F= -2.16D-04
     ILin= 3 X=2.900D+00 Y=-9.686945552136D-02 DE=-7.94D-04 F=  1.28D-03
     An  expanding polynomial of degree  3 produced  1.7042
 Iteration   5 EE=-0.976386408559620E-01 Delta-E=       -0.001563030784 Grad=1.793D-02 Max rot=    0.3951 deg.
 Gradient too large for Newton-Raphson -- use scaled steepest descent instead.
 Alpha Gap=     0.364 HL deriv= 1.90D-02
  Beta Gap=     0.374 HL deriv= 1.08D-02
     ILin= 1 X=0.000D+00 Y=-9.763864085596D-02 DE= 0.00D+00 F= -9.73D-04
     ILin= 2 X=1.600D+00 Y=-9.842908276664D-02 DE=-7.90D-04 F= -1.45D-05
     ILin= 3 X=3.200D+00 Y=-9.768506931891D-02 DE=-4.64D-05 F=  9.44D-04
     An  expanding polynomial of degree  3 produced  1.6242
     Minimum is close to point  2 DX=  2.42D-02 DF= -1.76D-07 DXR=  1.49D-02 DFR=  2.22D-04 which will be used.
 Iteration   6 EE=-0.984290827666428E-01 Delta-E=       -0.000790441911 Grad=1.240D-02 Max rot=    0.3159 deg.
 Gradient too large for Newton-Raphson -- use scaled steepest descent instead.
 Alpha Gap=     0.364 HL deriv= 1.51D-02
  Beta Gap=     0.373 HL deriv= 7.98D-03
     ILin= 1 X=0.000D+00 Y=-9.842908276664D-02 DE= 0.00D+00 F= -4.92D-04
     ILin= 2 X=1.700D+00 Y=-9.887420558391D-02 DE=-4.45D-04 F= -3.22D-05
     ILin= 3 X=3.300D+00 Y=-9.858285532351D-02 DE=-1.54D-04 F=  3.95D-04
     An  expanding polynomial of degree  3 produced  1.8232
     Minimum is close to point  2 DX=  1.23D-01 DF= -2.04D-06 DXR=  6.76D-02 DFR=  4.59D-03 which will be used.
 Iteration   7 EE=-0.988742055839111E-01 Delta-E=       -0.000445122817 Grad=9.520D-03 Max rot=    0.2553 deg.
 QCNR:  CnvC1=3.65D-09 CnvC2=3.65D-08
 LinEq1:  Iter=  0 NonCon=     1 RMS=4.66D-04 Max=1.05D-02 NDo=     1
 AX will form     1 AO Fock derivatives at one time.
 LinEq1:  Iter=  1 NonCon=     1 RMS=1.77D-04 Max=2.52D-03 NDo=     1
 LinEq1:  Iter=  2 NonCon=     1 RMS=1.40D-05 Max=2.59D-04 NDo=     1
 LinEq1:  Iter=  3 NonCon=     1 RMS=4.26D-06 Max=8.00D-05 NDo=     1
 LinEq1:  Iter=  4 NonCon=     1 RMS=7.83D-07 Max=7.91D-06 NDo=     1
 LinEq1:  Iter=  5 NonCon=     1 RMS=1.51D-07 Max=1.58D-06 NDo=     1
 LinEq1:  Iter=  6 NonCon=     1 RMS=2.78D-08 Max=2.10D-07 NDo=     1
 LinEq1:  Iter=  7 NonCon=     1 RMS=4.27D-09 Max=2.62D-08 NDo=     1
 LinEq1:  Iter=  8 NonCon=     0 RMS=6.47D-10 Max=3.17D-09 NDo=     1
 Linear equations converged to 3.652D-09 3.652D-08 after     8 iterations.
 Angle between quadratic step and gradient=  52.56 degrees.
     ILin= 1 X=0.000D+00 Y=-9.887420558391D-02 DE= 0.00D+00 F= -1.42D-03
     ILin= 2 X=1.000D+00 Y=-9.959150853535D-02 DE=-7.17D-04 F= -1.70D-05
     Reject lnstep minimum 1.012D+00 FVal=-9.959161218098D-02 Lims=  0.00D+00  1.00D+00
     ILin= 3 X=1.600D+00 Y=-9.935563026272D-02 DE=-4.81D-04 F=  7.98D-04
     An  expanding polynomial of degree  3 produced  1.0168
     Minimum is close to point  2 DX=  1.68D-02 DF= -1.95D-07 DXR=  1.65D-02 DFR=  2.72D-04 which will be used.
 Iteration   8 EE=-0.995915085353545E-01 Delta-E=       -0.000717302951 Grad=7.647D-04 Max rot=    0.0324 deg.
 QCNR:  CnvC1=3.65D-09 CnvC2=3.65D-08
 LinEq1:  Iter=  0 NonCon=     1 RMS=5.20D-05 Max=1.61D-03 NDo=     1
 LinEq1:  Iter=  1 NonCon=     1 RMS=8.34D-06 Max=8.29D-05 NDo=     1
 LinEq1:  Iter=  2 NonCon=     1 RMS=1.62D-06 Max=1.06D-05 NDo=     1
 LinEq1:  Iter=  3 NonCon=     1 RMS=3.55D-07 Max=4.33D-06 NDo=     1
 LinEq1:  Iter=  4 NonCon=     1 RMS=6.65D-08 Max=1.29D-06 NDo=     1
 LinEq1:  Iter=  5 NonCon=     1 RMS=1.56D-08 Max=2.50D-07 NDo=     1
 LinEq1:  Iter=  6 NonCon=     0 RMS=3.01D-09 Max=1.84D-08 NDo=     1
 Linear equations converged to 3.652D-09 3.652D-08 after     6 iterations.
 Angle between quadratic step and gradient=  26.91 degrees.
     ILin= 1 X=0.000D+00 Y=-9.959150853535D-02 DE= 0.00D+00 F= -2.40D-05
     ILin= 2 X=1.000D+00 Y=-9.960347236427D-02 DE=-1.20D-05 F=  1.30D-07
     Accept linear search using points  1 and  2.
     An  expanding polynomial of degree  2 produced  0.9947
     Minimum is close to point  2 DX= -5.34D-03 DF= -3.46D-10 DXR=  5.37D-03 DFR=  2.89D-05 which will be used.
 Iteration   9 EE=-0.996034723642651E-01 Delta-E=       -0.000011963829 Grad=3.455D-05 Max rot=    0.0003 deg.
 QCNR:  CnvC1=3.45D-10 CnvC2=3.45D-09
 LinEq1:  Iter=  0 NonCon=     1 RMS=1.32D-06 Max=1.46D-05 NDo=     1
 LinEq1:  Iter=  1 NonCon=     1 RMS=3.46D-07 Max=5.71D-06 NDo=     1
 LinEq1:  Iter=  2 NonCon=     1 RMS=8.17D-08 Max=1.13D-06 NDo=     1
 LinEq1:  Iter=  3 NonCon=     1 RMS=1.87D-08 Max=1.77D-07 NDo=     1
 LinEq1:  Iter=  4 NonCon=     1 RMS=3.41D-09 Max=2.15D-08 NDo=     1
 LinEq1:  Iter=  5 NonCon=     1 RMS=6.49D-10 Max=4.33D-09 NDo=     1
 LinEq1:  Iter=  6 NonCon=     0 RMS=6.89D-11 Max=4.92D-10 NDo=     1
 Linear equations converged to 3.455D-10 3.455D-09 after     6 iterations.
 Angle between quadratic step and gradient=  57.07 degrees.
     ILin= 1 X=0.000D+00 Y=-9.960347236427D-02 DE= 0.00D+00 F= -7.34D-09
     ILin= 2 X=1.000D+00 Y=-9.960347603254D-02 DE=-3.67D-09
 Iteration  10 EE=-0.996034760325415E-01 Delta-E=       -0.000000003668 Grad=1.982D-07 Max rot=    0.0000 deg.
 Rotation gradient small -- convergence achieved.
 SCF Done:  E(UPM6) = -0.996034760325E-01 a.u. after   10 cycles
            Convg  =    0.1982D-06                    43 Fock formations.
              S**2 =  0.5516                  -V/T =  0.9971
 <Sx>= 0.0000 <Sy>= 0.0000 <Sz>= 0.0000 <S**2>= 0.5516 S= 0.3953
 <L.S>= 0.000000000000E+00
 Annihilation of the first spin contaminant:
 S**2 before annihilation     0.5516,   after     0.0009
 Leave Link  508 at Tue Feb 16 09:45:39 2021, MaxMem=    33554432 cpu:         0.1
 (Enter /cm/shared/apps/Gaussian09/g09/l801.exe)
 Range of M.O.s used for correlation:     1    52
 NBasis=    52 NAE=    29 NBE=    29 NFC=     0 NFV=     0
 NROrb=     52 NOA=    29 NOB=    29 NVA=    23 NVB=    23
 Leave Link  801 at Tue Feb 16 09:45:39 2021, MaxMem=    33554432 cpu:         0.0
 (Enter /cm/shared/apps/Gaussian09/g09/l1101.exe)
 Using compressed storage, NAtomX=    22.
 Will process     23 centers per pass.
 Leave Link 1101 at Tue Feb 16 09:45:39 2021, MaxMem=    33554432 cpu:         0.1
 (Enter /cm/shared/apps/Gaussian09/g09/l1102.exe)
 Symmetrizing basis deriv contribution to polar:
 IMax=3 JMax=2 DiffMx= 0.00D+00
 Leave Link 1102 at Tue Feb 16 09:45:39 2021, MaxMem=    33554432 cpu:         0.0
 (Enter /cm/shared/apps/Gaussian09/g09/l1110.exe)
 Forming Gx(P) for the SCF density, NAtomX=    22.
 Integral derivatives from FoFJK, PRISM(SPDF).
 Do as many integral derivatives as possible in FoFJK.
 G2DrvN: MDV=      33495261.
 G2DrvN: will do    23 centers at a time, making    1 passes.
 Calling FoFCou, ICntrl=  3107 FMM=F I1Cent=   0 AccDes= 0.00D+00.
 FoFJK:  IHMeth=40 ICntrl=    3107 DoSepK=F KAlg= 0 I1Cent=   0 FoldK=F
 IRaf=         0 NMat=   1 IRICut=       1 DoRegI=T DoRafI=F ISym2E= 0.
 FoFCou: FMM=F IPFlag=           0 FMFlag=      100000 FMFlg1=           0
         NFxFlg=           0 DoJE=F BraDBF=F KetDBF=F FulRan=T
         wScrn=  0.000000 ICntrl=    3107 IOpCl=  1 I1Cent=           0 NGrid=           0
         NMat0=    1 NMatS0=      1 NMatT0=    0 NMatD0=    1 NMtDS0=    0 NMtDT0=    0
 Symmetry not used in FoFCou.
 End of G2Drv F.D. properties file   721 does not exist.
 End of G2Drv F.D. properties file   722 does not exist.
 End of G2Drv F.D. properties file   788 does not exist.
 Leave Link 1110 at Tue Feb 16 09:45:39 2021, MaxMem=    33554432 cpu:         0.0
 (Enter /cm/shared/apps/Gaussian09/g09/l1002.exe)
 Minotr:  UHF open shell wavefunction.
          IDoAtm=1111111111111111111111
          Direct CPHF calculation.
          Differentiating once with respect to electric field.
                with respect to dipole field.
          Differentiating once with respect to nuclear coordinates.
          Electric field/nuclear overlap derivatives assumed to be zero.
          Requested convergence is 1.0D-08 RMS, and 1.0D-07 maximum.
          NewPWx=T KeepS1=F KeepF1=F KeepIn=T MapXYZ=F SortEE=F KeepMc=T.
          MDV=      33495213 using IRadAn=       2.
 Keep J ints in memory in canonical form, NReq=888555.
 FoFCou: FMM=F IPFlag=           0 FMFlag=           0 FMFlg1=           0
         NFxFlg=           0 DoJE=F BraDBF=F KetDBF=F FulRan=T
         wScrn=  0.000000 ICntrl=     600 IOpCl=  2 I1Cent=           0 NGrid=           0
         NMat0=    1 NMatS0=    112 NMatT0=    0 NMatD0=    1 NMtDS0=    0 NMtDT0=    0
 Symmetry not used in FoFCou.
          Solving linear equations separately, MaxMat=       0.
          There are    69 degrees of freedom in the 1st order CPHF.  IDoFFX=5 NUNeed=    69.
 LinEq1:  Iter=  0 NonCon=    69 RMS=1.79D-01 Max=1.77D+00 NDo=    69
 AX will form    69 AO Fock derivatives at one time.
 LinEq1:  Iter=  1 NonCon=    69 RMS=3.10D-02 Max=3.71D-01 NDo=    69
 LinEq1:  Iter=  2 NonCon=    69 RMS=7.73D-03 Max=1.64D-01 NDo=    69
 LinEq1:  Iter=  3 NonCon=    69 RMS=2.03D-03 Max=3.12D-02 NDo=    69
 LinEq1:  Iter=  4 NonCon=    69 RMS=3.21D-04 Max=2.46D-03 NDo=    69
 LinEq1:  Iter=  5 NonCon=    69 RMS=5.10D-05 Max=5.74D-04 NDo=    69
 LinEq1:  Iter=  6 NonCon=    69 RMS=9.67D-06 Max=9.24D-05 NDo=    69
 LinEq1:  Iter=  7 NonCon=    59 RMS=1.95D-06 Max=2.94D-05 NDo=    69
 LinEq1:  Iter=  8 NonCon=    23 RMS=5.28D-07 Max=9.54D-06 NDo=    69
 LinEq1:  Iter=  9 NonCon=     3 RMS=1.07D-07 Max=9.43D-07 NDo=    69
 LinEq1:  Iter= 10 NonCon=     2 RMS=1.64D-08 Max=9.62D-08 NDo=    69
 LinEq1:  Iter= 11 NonCon=     0 RMS=2.46D-09 Max=1.78D-08 NDo=    69
 Linear equations converged to 1.000D-08 1.000D-07 after    11 iterations.
 FullF1:  Do perturbations    1 to     3.
 Isotropic polarizability for W=    0.000000       62.30 Bohr**3.
 End of Minotr F.D. properties file   721 does not exist.
 End of Minotr F.D. properties file   722 does not exist.
 End of Minotr F.D. properties file   788 does not exist.
 Leave Link 1002 at Tue Feb 16 09:45:40 2021, MaxMem=    33554432 cpu:         0.4
 (Enter /cm/shared/apps/Gaussian09/g09/l601.exe)
 Copying SCF densities to generalized density rwf, IOpCl= 1 IROHF=0.

 **********************************************************************

            Population analysis using the SCF density.

 **********************************************************************

 Alpha  occ. eigenvalues --   -1.19257  -1.17601  -1.11747  -1.05523  -1.00328
 Alpha  occ. eigenvalues --   -0.96047  -0.84420  -0.79512  -0.75287  -0.71121
 Alpha  occ. eigenvalues --   -0.66403  -0.62534  -0.61156  -0.60710  -0.59725
 Alpha  occ. eigenvalues --   -0.56702  -0.53339  -0.52524  -0.52162  -0.51218
 Alpha  occ. eigenvalues --   -0.50789  -0.49416  -0.48406  -0.46010  -0.45310
 Alpha  occ. eigenvalues --   -0.43785  -0.41753  -0.37707  -0.34182
 Alpha virt. eigenvalues --    0.00950   0.01572   0.02341   0.06372   0.10855
 Alpha virt. eigenvalues --    0.11592   0.13174   0.14855   0.14947   0.15905
 Alpha virt. eigenvalues --    0.17155   0.17465   0.17664   0.17900   0.18151
 Alpha virt. eigenvalues --    0.18936   0.19023   0.20798   0.20832   0.21971
 Alpha virt. eigenvalues --    0.22251   0.22790   0.23451
  Beta  occ. eigenvalues --   -1.19264  -1.17602  -1.11746  -1.05527  -1.00348
  Beta  occ. eigenvalues --   -0.96075  -0.84470  -0.79516  -0.75227  -0.71112
  Beta  occ. eigenvalues --   -0.66427  -0.62614  -0.61127  -0.60736  -0.59700
  Beta  occ. eigenvalues --   -0.56761  -0.53082  -0.52573  -0.52064  -0.51453
  Beta  occ. eigenvalues --   -0.50808  -0.49568  -0.48322  -0.45866  -0.45320
  Beta  occ. eigenvalues --   -0.43758  -0.41763  -0.37746  -0.34093
  Beta virt. eigenvalues --    0.00958   0.01859   0.02169   0.06383   0.10839
  Beta virt. eigenvalues --    0.11587   0.13152   0.14728   0.14940   0.15894
  Beta virt. eigenvalues --    0.17174   0.17480   0.17666   0.17915   0.18132
  Beta virt. eigenvalues --    0.18931   0.19082   0.20781   0.20827   0.21945
  Beta virt. eigenvalues --    0.22230   0.22790   0.23463
          Condensed to atoms (all electrons):
               1          2          3          4          5          6
     1  C    4.202632   0.000000   0.000000   0.000000   0.000000   0.000000
     2  C    0.000000   4.394654   0.000000   0.000000   0.000000   0.000000
     3  C    0.000000   0.000000   4.073378   0.000000   0.000000   0.000000
     4  C    0.000000   0.000000   0.000000   3.307908   0.000000   0.000000
     5  C    0.000000   0.000000   0.000000   0.000000   3.595669   0.000000
     6  C    0.000000   0.000000   0.000000   0.000000   0.000000   4.445330
     7  H    0.000000   0.000000   0.000000   0.000000   0.000000   0.000000
     8  H    0.000000   0.000000   0.000000   0.000000   0.000000   0.000000
     9  H    0.000000   0.000000   0.000000   0.000000   0.000000   0.000000
    10  H    0.000000   0.000000   0.000000   0.000000   0.000000   0.000000
    11  H    0.000000   0.000000   0.000000   0.000000   0.000000   0.000000
    12  H    0.000000   0.000000   0.000000   0.000000   0.000000   0.000000
    13  C    0.000000   0.000000   0.000000   0.000000   0.000000   0.000000
    14  H    0.000000   0.000000   0.000000   0.000000   0.000000   0.000000
    15  H    0.000000   0.000000   0.000000   0.000000   0.000000   0.000000
    16  H    0.000000   0.000000   0.000000   0.000000   0.000000   0.000000
    17  H    0.000000   0.000000   0.000000   0.000000   0.000000   0.000000
    18  H    0.000000   0.000000   0.000000   0.000000   0.000000   0.000000
    19  H    0.000000   0.000000   0.000000   0.000000   0.000000   0.000000
    20  O    0.000000   0.000000   0.000000   0.000000   0.000000   0.000000
    21  O    0.000000   0.000000   0.000000   0.000000   0.000000   0.000000
    22  O    0.000000   0.000000   0.000000   0.000000   0.000000   0.000000
               7          8          9         10         11         12
     1  C    0.000000   0.000000   0.000000   0.000000   0.000000   0.000000
     2  C    0.000000   0.000000   0.000000   0.000000   0.000000   0.000000
     3  C    0.000000   0.000000   0.000000   0.000000   0.000000   0.000000
     4  C    0.000000   0.000000   0.000000   0.000000   0.000000   0.000000
     5  C    0.000000   0.000000   0.000000   0.000000   0.000000   0.000000
     6  C    0.000000   0.000000   0.000000   0.000000   0.000000   0.000000
     7  H    0.857927   0.000000   0.000000   0.000000   0.000000   0.000000
     8  H    0.000000   0.856787   0.000000   0.000000   0.000000   0.000000
     9  H    0.000000   0.000000   0.796253   0.000000   0.000000   0.000000
    10  H    0.000000   0.000000   0.000000   0.826588   0.000000   0.000000
    11  H    0.000000   0.000000   0.000000   0.000000   0.924344   0.000000
    12  H    0.000000   0.000000   0.000000   0.000000   0.000000   0.661148
    13  C    0.000000   0.000000   0.000000   0.000000   0.000000   0.000000
    14  H    0.000000   0.000000   0.000000   0.000000   0.000000   0.000000
    15  H    0.000000   0.000000   0.000000   0.000000   0.000000   0.000000
    16  H    0.000000   0.000000   0.000000   0.000000   0.000000   0.000000
    17  H    0.000000   0.000000   0.000000   0.000000   0.000000   0.000000
    18  H    0.000000   0.000000   0.000000   0.000000   0.000000   0.000000
    19  H    0.000000   0.000000   0.000000   0.000000   0.000000   0.000000
    20  O    0.000000   0.000000   0.000000   0.000000   0.000000   0.000000
    21  O    0.000000   0.000000   0.000000   0.000000   0.000000   0.000000
    22  O    0.000000   0.000000   0.000000   0.000000   0.000000   0.000000
              13         14         15         16         17         18
     1  C    0.000000   0.000000   0.000000   0.000000   0.000000   0.000000
     2  C    0.000000   0.000000   0.000000   0.000000   0.000000   0.000000
     3  C    0.000000   0.000000   0.000000   0.000000   0.000000   0.000000
     4  C    0.000000   0.000000   0.000000   0.000000   0.000000   0.000000
     5  C    0.000000   0.000000   0.000000   0.000000   0.000000   0.000000
     6  C    0.000000   0.000000   0.000000   0.000000   0.000000   0.000000
     7  H    0.000000   0.000000   0.000000   0.000000   0.000000   0.000000
     8  H    0.000000   0.000000   0.000000   0.000000   0.000000   0.000000
     9  H    0.000000   0.000000   0.000000   0.000000   0.000000   0.000000
    10  H    0.000000   0.000000   0.000000   0.000000   0.000000   0.000000
    11  H    0.000000   0.000000   0.000000   0.000000   0.000000   0.000000
    12  H    0.000000   0.000000   0.000000   0.000000   0.000000   0.000000
    13  C    4.604112   0.000000   0.000000   0.000000   0.000000   0.000000
    14  H    0.000000   0.910853   0.000000   0.000000   0.000000   0.000000
    15  H    0.000000   0.000000   0.826822   0.000000   0.000000   0.000000
    16  H    0.000000   0.000000   0.000000   0.827744   0.000000   0.000000
    17  H    0.000000   0.000000   0.000000   0.000000   0.759405   0.000000
    18  H    0.000000   0.000000   0.000000   0.000000   0.000000   0.796337
    19  H    0.000000   0.000000   0.000000   0.000000   0.000000   0.000000
    20  O    0.000000   0.000000   0.000000   0.000000   0.000000   0.000000
    21  O    0.000000   0.000000   0.000000   0.000000   0.000000   0.000000
    22  O    0.000000   0.000000   0.000000   0.000000   0.000000   0.000000
              19         20         21         22
     1  C    0.000000   0.000000   0.000000   0.000000
     2  C    0.000000   0.000000   0.000000   0.000000
     3  C    0.000000   0.000000   0.000000   0.000000
     4  C    0.000000   0.000000   0.000000   0.000000
     5  C    0.000000   0.000000   0.000000   0.000000
     6  C    0.000000   0.000000   0.000000   0.000000
     7  H    0.000000   0.000000   0.000000   0.000000
     8  H    0.000000   0.000000   0.000000   0.000000
     9  H    0.000000   0.000000   0.000000   0.000000
    10  H    0.000000   0.000000   0.000000   0.000000
    11  H    0.000000   0.000000   0.000000   0.000000
    12  H    0.000000   0.000000   0.000000   0.000000
    13  C    0.000000   0.000000   0.000000   0.000000
    14  H    0.000000   0.000000   0.000000   0.000000
    15  H    0.000000   0.000000   0.000000   0.000000
    16  H    0.000000   0.000000   0.000000   0.000000
    17  H    0.000000   0.000000   0.000000   0.000000
    18  H    0.000000   0.000000   0.000000   0.000000
    19  H    0.797430   0.000000   0.000000   0.000000
    20  O    0.000000   6.458016   0.000000   0.000000
    21  O    0.000000   0.000000   6.566203   0.000000
    22  O    0.000000   0.000000   0.000000   6.510459
          Atomic-Atomic Spin Densities.
               1          2          3          4          5          6
     1  C   -0.013462   0.000000   0.000000   0.000000   0.000000   0.000000
     2  C    0.000000   0.006178   0.000000   0.000000   0.000000   0.000000
     3  C    0.000000   0.000000   0.002067   0.000000   0.000000   0.000000
     4  C    0.000000   0.000000   0.000000   0.000290   0.000000   0.000000
     5  C    0.000000   0.000000   0.000000   0.000000  -0.000215   0.000000
     6  C    0.000000   0.000000   0.000000   0.000000   0.000000   0.000379
     7  H    0.000000   0.000000   0.000000   0.000000   0.000000   0.000000
     8  H    0.000000   0.000000   0.000000   0.000000   0.000000   0.000000
     9  H    0.000000   0.000000   0.000000   0.000000   0.000000   0.000000
    10  H    0.000000   0.000000   0.000000   0.000000   0.000000   0.000000
    11  H    0.000000   0.000000   0.000000   0.000000   0.000000   0.000000
    12  H    0.000000   0.000000   0.000000   0.000000   0.000000   0.000000
    13  C    0.000000   0.000000   0.000000   0.000000   0.000000   0.000000
    14  H    0.000000   0.000000   0.000000   0.000000   0.000000   0.000000
    15  H    0.000000   0.000000   0.000000   0.000000   0.000000   0.000000
    16  H    0.000000   0.000000   0.000000   0.000000   0.000000   0.000000
    17  H    0.000000   0.000000   0.000000   0.000000   0.000000   0.000000
    18  H    0.000000   0.000000   0.000000   0.000000   0.000000   0.000000
    19  H    0.000000   0.000000   0.000000   0.000000   0.000000   0.000000
    20  O    0.000000   0.000000   0.000000   0.000000   0.000000   0.000000
    21  O    0.000000   0.000000   0.000000   0.000000   0.000000   0.000000
    22  O    0.000000   0.000000   0.000000   0.000000   0.000000   0.000000
               7          8          9         10         11         12
     1  C    0.000000   0.000000   0.000000   0.000000   0.000000   0.000000
     2  C    0.000000   0.000000   0.000000   0.000000   0.000000   0.000000
     3  C    0.000000   0.000000   0.000000   0.000000   0.000000   0.000000
     4  C    0.000000   0.000000   0.000000   0.000000   0.000000   0.000000
     5  C    0.000000   0.000000   0.000000   0.000000   0.000000   0.000000
     6  C    0.000000   0.000000   0.000000   0.000000   0.000000   0.000000
     7  H    0.000602   0.000000   0.000000   0.000000   0.000000   0.000000
     8  H    0.000000   0.000208   0.000000   0.000000   0.000000   0.000000
     9  H    0.000000   0.000000  -0.005661   0.000000   0.000000   0.000000
    10  H    0.000000   0.000000   0.000000   0.014868   0.000000   0.000000
    11  H    0.000000   0.000000   0.000000   0.000000   0.000771   0.000000
    12  H    0.000000   0.000000   0.000000   0.000000   0.000000  -0.000166
    13  C    0.000000   0.000000   0.000000   0.000000   0.000000   0.000000
    14  H    0.000000   0.000000   0.000000   0.000000   0.000000   0.000000
    15  H    0.000000   0.000000   0.000000   0.000000   0.000000   0.000000
    16  H    0.000000   0.000000   0.000000   0.000000   0.000000   0.000000
    17  H    0.000000   0.000000   0.000000   0.000000   0.000000   0.000000
    18  H    0.000000   0.000000   0.000000   0.000000   0.000000   0.000000
    19  H    0.000000   0.000000   0.000000   0.000000   0.000000   0.000000
    20  O    0.000000   0.000000   0.000000   0.000000   0.000000   0.000000
    21  O    0.000000   0.000000   0.000000   0.000000   0.000000   0.000000
    22  O    0.000000   0.000000   0.000000   0.000000   0.000000   0.000000
              13         14         15         16         17         18
     1  C    0.000000   0.000000   0.000000   0.000000   0.000000   0.000000
     2  C    0.000000   0.000000   0.000000   0.000000   0.000000   0.000000
     3  C    0.000000   0.000000   0.000000   0.000000   0.000000   0.000000
     4  C    0.000000   0.000000   0.000000   0.000000   0.000000   0.000000
     5  C    0.000000   0.000000   0.000000   0.000000   0.000000   0.000000
     6  C    0.000000   0.000000   0.000000   0.000000   0.000000   0.000000
     7  H    0.000000   0.000000   0.000000   0.000000   0.000000   0.000000
     8  H    0.000000   0.000000   0.000000   0.000000   0.000000   0.000000
     9  H    0.000000   0.000000   0.000000   0.000000   0.000000   0.000000
    10  H    0.000000   0.000000   0.000000   0.000000   0.000000   0.000000
    11  H    0.000000   0.000000   0.000000   0.000000   0.000000   0.000000
    12  H    0.000000   0.000000   0.000000   0.000000   0.000000   0.000000
    13  C   -0.008750   0.000000   0.000000   0.000000   0.000000   0.000000
    14  H    0.000000  -0.000078   0.000000   0.000000   0.000000   0.000000
    15  H    0.000000   0.000000   0.000058   0.000000   0.000000   0.000000
    16  H    0.000000   0.000000   0.000000  -0.000033   0.000000   0.000000
    17  H    0.000000   0.000000   0.000000   0.000000   0.003091   0.000000
    18  H    0.000000   0.000000   0.000000   0.000000   0.000000   0.000329
    19  H    0.000000   0.000000   0.000000   0.000000   0.000000   0.000000
    20  O    0.000000   0.000000   0.000000   0.000000   0.000000   0.000000
    21  O    0.000000   0.000000   0.000000   0.000000   0.000000   0.000000
    22  O    0.000000   0.000000   0.000000   0.000000   0.000000   0.000000
              19         20         21         22
     1  C    0.000000   0.000000   0.000000   0.000000
     2  C    0.000000   0.000000   0.000000   0.000000
     3  C    0.000000   0.000000   0.000000   0.000000
     4  C    0.000000   0.000000   0.000000   0.000000
     5  C    0.000000   0.000000   0.000000   0.000000
     6  C    0.000000   0.000000   0.000000   0.000000
     7  H    0.000000   0.000000   0.000000   0.000000
     8  H    0.000000   0.000000   0.000000   0.000000
     9  H    0.000000   0.000000   0.000000   0.000000
    10  H    0.000000   0.000000   0.000000   0.000000
    11  H    0.000000   0.000000   0.000000   0.000000
    12  H    0.000000   0.000000   0.000000   0.000000
    13  C    0.000000   0.000000   0.000000   0.000000
    14  H    0.000000   0.000000   0.000000   0.000000
    15  H    0.000000   0.000000   0.000000   0.000000
    16  H    0.000000   0.000000   0.000000   0.000000
    17  H    0.000000   0.000000   0.000000   0.000000
    18  H    0.000000   0.000000   0.000000   0.000000
    19  H    0.000092   0.000000   0.000000   0.000000
    20  O    0.000000  -0.000047   0.000000   0.000000
    21  O    0.000000   0.000000   0.000355   0.000000
    22  O    0.000000   0.000000   0.000000  -0.000875
 Mulliken charges and spin densities:
               1          2
     1  C   -0.202632  -0.013462
     2  C   -0.394654   0.006178
     3  C   -0.073378   0.002067
     4  C    0.692092   0.000290
     5  C    0.404331  -0.000215
     6  C   -0.445330   0.000379
     7  H    0.142073   0.000602
     8  H    0.143213   0.000208
     9  H    0.203747  -0.005661
    10  H    0.173412   0.014868
    11  H    0.075656   0.000771
    12  H    0.338852  -0.000166
    13  C   -0.604112  -0.008750
    14  H    0.089147  -0.000078
    15  H    0.173178   0.000058
    16  H    0.172256  -0.000033
    17  H    0.240595   0.003091
    18  H    0.203663   0.000329
    19  H    0.202570   0.000092
    20  O   -0.458016  -0.000047
    21  O   -0.566203   0.000355
    22  O   -0.510459  -0.000875
 Sum of Mulliken charges =   0.00000   0.00000
 Mulliken charges and spin densities with hydrogens summed into heavy atoms:
               1          2
     1  C    0.082654  -0.012652
     2  C   -0.017495   0.015384
     3  C    0.002278   0.002838
     4  C    0.692092   0.000290
     5  C    0.493478  -0.000294
     6  C   -0.099896   0.000404
    13  C    0.042715  -0.005237
    20  O   -0.458016  -0.000047
    21  O   -0.227351   0.000188
    22  O   -0.510459  -0.000875
 APT charges:
               1
     1  C   -0.128073
     2  C   -0.552548
     3  C   -0.060525
     4  C    1.619939
     5  C    0.888546
     6  C   -0.680988
     7  H    0.131023
     8  H    0.128033
     9  H    0.221744
    10  H    0.184736
    11  H    0.164311
    12  H    0.332811
    13  C   -0.965323
    14  H    0.005456
    15  H    0.187789
    16  H    0.189108
    17  H    0.339939
    18  H    0.255456
    19  H    0.247266
    20  O   -0.682677
    21  O   -0.943256
    22  O   -0.883062
 Sum of APT charges =  -0.00029
 APT charges with hydrogens summed into heavy atoms:
               1
     1  C    0.130983
     2  C   -0.146068
     3  C    0.103786
     4  C    1.619939
     5  C    0.894003
     6  C   -0.304092
    13  C   -0.122661
    20  O   -0.682677
    21  O   -0.610445
    22  O   -0.883062
 Charge=              0.0000 electrons
 Dipole moment (field-independent basis, Debye):
    X=             -0.4621    Y=             -3.4254    Z=              1.9008  Tot=              3.9446
 N-N= 3.136993177062D+02 E-N=-5.548607954171D+02  KE=-3.404362597408D+01
  Exact polarizability:  43.249   2.758  68.145  -8.894   2.317  75.515
 Approx polarizability:  28.228   2.767  49.349  -2.289   1.211  48.538
 Leave Link  601 at Tue Feb 16 09:45:40 2021, MaxMem=    33554432 cpu:         0.0
 (Enter /cm/shared/apps/Gaussian09/g09/l701.exe)
 Compute integral second derivatives.
 ... and contract with generalized density number  0.
 Leave Link  701 at Tue Feb 16 09:45:40 2021, MaxMem=    33554432 cpu:         0.1
 (Enter /cm/shared/apps/Gaussian09/g09/l702.exe)
 L702 exits ... SP integral derivatives will be done elsewhere.
 Leave Link  702 at Tue Feb 16 09:45:40 2021, MaxMem=    33554432 cpu:         0.0
 (Enter /cm/shared/apps/Gaussian09/g09/l703.exe)
 Compute integral second derivatives, UseDBF=F ICtDFT=           0.
 Integral derivatives from FoFJK, PRISM(SPDF).
 Calling FoFJK, ICntrl=    100127 FMM=F ISym2X=0 I1Cent= 0 IOpClX= 1 NMat=1 NMatS=1 NMatT=0.
 FoFJK:  IHMeth=40 ICntrl=  100127 DoSepK=F KAlg= 0 I1Cent=   0 FoldK=F
 IRaf=         0 NMat=   1 IRICut=       1 DoRegI=T DoRafI=F ISym2E= 0.
 FoFCou: FMM=F IPFlag=           0 FMFlag=      100000 FMFlg1=         800
         NFxFlg=           0 DoJE=F BraDBF=F KetDBF=F FulRan=T
         wScrn=  0.000000 ICntrl=  100127 IOpCl=  1 I1Cent=           0 NGrid=           0
         NMat0=    1 NMatS0=      1 NMatT0=    0 NMatD0=    1 NMtDS0=    0 NMtDT0=    0
 Symmetry not used in FoFCou.
 Leave Link  703 at Tue Feb 16 09:45:40 2021, MaxMem=    33554432 cpu:         0.0
 (Enter /cm/shared/apps/Gaussian09/g09/l716.exe)
 Dipole        =-1.81821646D-01-1.34765454D+00 7.47849857D-01
 Polarizability= 4.32488161D+01 2.75753790D+00 6.81451901D+01
                -8.89446430D+00 2.31657794D+00 7.55147806D+01
 HyperPolar    =-2.96690465D+01-3.04861662D+01-1.98973573D+01
                 2.89339347D+00 2.57770776D+00 5.89168436D+00
                 9.16727906D+00-5.24864030D+01-7.03343157D+01
                -4.58306621D+00
 -------------------------------------------------------------------
 Center     Atomic                   Forces (Hartrees/Bohr)
 Number     Number              X              Y              Z
 -------------------------------------------------------------------
      1        6          -0.001919012   -0.000910298   -0.001938531
      2        6           0.009726862   -0.005737006   -0.004081520
      3        6          -0.011597823    0.012890353    0.011884005
      4        6          -0.000315676    0.002033412    0.001752440
      5        6           0.000017296   -0.000203785   -0.000102198
      6        6          -0.000151973    0.000229354    0.000341642
      7        1           0.000315334   -0.000321139   -0.000384863
      8        1          -0.000038532    0.000123710   -0.000108069
      9        1           0.000057860    0.000934512    0.001619137
     10        1          -0.000562081    0.000074850    0.000955770
     11        1           0.003152453   -0.007316770   -0.007013672
     12        1          -0.000028360    0.000039573   -0.000060697
     13        6          -0.001178493   -0.001121167    0.001112973
     14        1          -0.000002701    0.000012081    0.000003877
     15        1           0.000060325   -0.000121679   -0.000102890
     16        1          -0.000021284   -0.000053880   -0.000096384
     17        1           0.001239144    0.000298165   -0.001433503
     18        1           0.000222819    0.000036244   -0.000029859
     19        1           0.000038429   -0.000054133   -0.000138043
     20        8           0.000034942    0.000116575    0.000023671
     21        8           0.000860806   -0.000737373   -0.001592220
     22        8           0.000089663   -0.000211600   -0.000611068
 -------------------------------------------------------------------
 Cartesian Forces:  Max     0.012890353 RMS     0.003329458
 Leave Link  716 at Tue Feb 16 09:45:40 2021, MaxMem=    33554432 cpu:         0.0
 (Enter /cm/shared/apps/Gaussian09/g09/l103.exe)

 GradGradGradGradGradGradGradGradGradGradGradGradGradGradGradGradGradGrad
 Berny optimization.
 Search for a saddle point.
 Step number   1 out of a maximum of  100
 All quantities printed in internal units (Hartrees-Bohrs-Radians)
 Swapping is turned off.
 Second derivative matrix not updated -- analytic derivatives used.
 ITU=  0
     Eigenvalues ---   -0.00059   0.00003   0.00010   0.00017   0.00028
     Eigenvalues ---    0.00047   0.00065   0.00088   0.00160   0.00235
     Eigenvalues ---    0.00629   0.01208   0.01648   0.01878   0.02046
     Eigenvalues ---    0.02245   0.03279   0.03900   0.04187   0.04564
     Eigenvalues ---    0.04877   0.04948   0.05673   0.05824   0.05927
     Eigenvalues ---    0.06187   0.06442   0.07189   0.07569   0.07705
     Eigenvalues ---    0.09244   0.10193   0.11961   0.12517   0.13793
     Eigenvalues ---    0.16042   0.17187   0.19739   0.23357   0.23446
     Eigenvalues ---    0.25440   0.33995   0.36151   0.42644   0.42884
     Eigenvalues ---    0.48902   0.50640   0.52246   0.54824   0.55475
     Eigenvalues ---    0.59180   0.60483   0.63336   0.65013   0.66194
     Eigenvalues ---    0.70382   0.74141   0.84153   1.66946   1.71004
 Eigenvectors required to have negative eigenvalues:
                          Y11       X12       X11       X21       Z9
   1                    0.42654  -0.37833   0.33545  -0.28553   0.23193
                          Y3        X9        X3        Z11       X10
   1                    0.23039   0.21972   0.21129  -0.19598  -0.14462
 RFO step:  Lambda0=7.005678227D-04 Lambda=-5.79415447D-03.
 Linear search not attempted -- option 19 set.
 Maximum step size (   0.300) exceeded in Quadratic search.
    -- Step size scaled by   0.376
 TrRot= -0.003807  0.001358  0.001414 -2.218427 -0.001349  2.220172
 Variable       Old X    -DE/DX   Delta X   Delta X   Delta X     New X
                                 (Linear)    (Quad)   (Total)
    X1       -0.46099  -0.00192   0.00000   0.02718   0.02412  -0.43687
    Y1        1.00885  -0.00091   0.00000  -0.00498  -0.00108   1.00777
    Z1        3.05843  -0.00194   0.00000   0.01887   0.01955   3.07798
    X2        0.60782   0.00973   0.00000   0.03643   0.03476   0.64258
    Y2       -0.73999  -0.00574   0.00000  -0.00581  -0.00222  -0.74221
    Z2        1.01076  -0.00408   0.00000   0.01954   0.02123   1.03199
    X3       -0.91936  -0.01160   0.00000   0.02008   0.01751  -0.90185
    Y3       -1.34366   0.01289   0.00000   0.09929   0.09784  -1.24582
    Z3       -1.16573   0.01188   0.00000   0.01338   0.01686  -1.14887
    X4        2.51279  -0.00032   0.00000  -0.02472  -0.03452   2.47827
    Y4        0.58527   0.00203   0.00000  -0.00910  -0.00999   0.57527
    Z4       -6.12848   0.00175   0.00000   0.00554   0.00431  -6.12417
    X5       -3.65084   0.00002   0.00000  -0.00928  -0.01027  -3.66111
    Y5        1.45366  -0.00020   0.00000   0.00132   0.00336   1.45703
    Z5        6.59019  -0.00010   0.00000  -0.01436  -0.01153   6.57865
    X6       -2.55888  -0.00015   0.00000   0.00451   0.00490  -2.55398
    Y6       -0.26889   0.00023   0.00000   0.00193   0.00376  -0.26512
    Z6        4.59000   0.00034   0.00000  -0.00668  -0.00290   4.58709
    X7        1.06568   0.00032   0.00000   0.02061   0.01756   1.08324
    Y7        1.62901  -0.00032   0.00000  -0.02107  -0.01311   1.61590
    Z7        4.35296  -0.00038   0.00000   0.03341   0.03220   4.38517
    X8       -1.19476  -0.00004   0.00000   0.04652   0.03967  -1.15509
    Y8        2.77464   0.00012   0.00000   0.00289   0.00462   2.77927
    Z8        2.20153  -0.00011   0.00000   0.01799   0.01736   2.21888
    X9        2.36174   0.00006   0.00000   0.07705   0.07325   2.43500
    Y9        0.13948   0.00093   0.00000  -0.03986  -0.03399   0.10549
    Z9        0.15616   0.00162   0.00000   0.08179   0.08111   0.23726
   X10        1.36280  -0.00056   0.00000  -0.05311  -0.05093   1.31186
   Y10       -2.51195   0.00007   0.00000  -0.04698  -0.04132  -2.55327
   Z10        1.86387   0.00096   0.00000   0.01118   0.01428   1.87814
   X11       -2.65719   0.00315   0.00000   0.06508   0.06040  -2.59679
   Y11       -0.31198  -0.00732   0.00000   0.08842   0.08358  -0.22839
   Z11       -1.44540  -0.00701   0.00000  -0.11456  -0.11079  -1.55619
   X12        2.02511  -0.00003   0.00000  -0.10552  -0.11886   1.90625
   Y12        3.64586   0.00004   0.00000  -0.03327  -0.03284   3.61302
   Z12       -3.98894  -0.00006   0.00000   0.01911   0.01508  -3.97386
   X13        2.66447  -0.00118   0.00000   0.01357   0.00887   2.67335
   Y13       -2.18019  -0.00112   0.00000  -0.01187  -0.01206  -2.19225
   Z13       -5.78137   0.00111   0.00000  -0.01129  -0.00970  -5.79107
   X14       -5.16188   0.00000   0.00000  -0.01273  -0.01129  -5.17317
   Y14        0.60322   0.00001   0.00000  -0.00089  -0.00025   0.60297
   Z14        7.74751   0.00000   0.00000  -0.02040  -0.01542   7.73210
   X15       -4.09627   0.00006   0.00000   0.01544   0.01589  -4.08038
   Y15       -0.91136  -0.00012   0.00000   0.01243   0.01021  -0.90115
   Z15        3.31600  -0.00010   0.00000  -0.02591  -0.02021   3.29579
   X16       -1.83402  -0.00002   0.00000  -0.01447  -0.01028  -1.84430
   Y16       -2.01455  -0.00005   0.00000  -0.00505  -0.00100  -2.01556
   Z16        5.49816  -0.00010   0.00000  -0.00509  -0.00001   5.49815
   X17        1.26004   0.00124   0.00000   0.03509   0.03278   1.29282
   Y17       -2.85852   0.00030   0.00000  -0.03671  -0.03778  -2.89630
   Z17       -4.35197  -0.00143   0.00000  -0.01045  -0.00698  -4.35895
   X18        4.52933   0.00022   0.00000   0.02860   0.02544   4.55477
   Y18       -2.76846   0.00004   0.00000   0.01139   0.01522  -2.75324
   Z18       -5.07601  -0.00003   0.00000  -0.03008  -0.02941  -5.10543
   X19        2.30274   0.00004   0.00000   0.01791   0.01351   2.31625
   Y19       -3.19207  -0.00005   0.00000  -0.00392  -0.00666  -3.19873
   Z19       -7.56076  -0.00014   0.00000  -0.01725  -0.01429  -7.57505
   X20       -2.95369   0.00003   0.00000  -0.01689  -0.02136  -2.97504
   Y20        3.60386   0.00012   0.00000   0.00379   0.00740   3.61126
   Z20        6.93064   0.00002   0.00000  -0.01365  -0.01370   6.91695
   X21        2.13300   0.00086   0.00000  -0.06513  -0.07509   2.05792
   Y21        1.78079  -0.00074   0.00000  -0.03227  -0.03140   1.74939
   Z21       -3.81602  -0.00159   0.00000   0.00623   0.00408  -3.81194
   X22        2.66237   0.00009   0.00000  -0.02249  -0.03608   2.62628
   Y22        1.87698  -0.00021   0.00000   0.00033  -0.00230   1.87468
   Z22       -8.00151  -0.00061   0.00000   0.01163   0.00888  -7.99263
         Item               Value     Threshold  Converged?
 Maximum Force            0.012890     0.000450     NO 
 RMS     Force            0.003329     0.000300     NO 
 Maximum Displacement     0.118861     0.001800     NO 
 RMS     Displacement     0.036673     0.001200     NO 
 Predicted change in Energy=-1.567508D-03
 Lowest energy point so far.  Saving SCF results.
 GradGradGradGradGradGradGradGradGradGradGradGradGradGradGradGradGradGrad

 Leave Link  103 at Tue Feb 16 09:45:40 2021, MaxMem=    33554432 cpu:         0.0
 (Enter /cm/shared/apps/Gaussian09/g09/l202.exe)
                          Input orientation:                          
 ---------------------------------------------------------------------
 Center     Atomic      Atomic             Coordinates (Angstroms)
 Number     Number       Type             X           Y           Z
 ---------------------------------------------------------------------
      1          6           0       -0.231179    0.533292    1.628799
      2          6           0        0.340038   -0.392760    0.546107
      3          6           0       -0.477239   -0.659259   -0.607954
      4          6           0        1.311446    0.304422   -3.240770
      5          6           0       -1.937377    0.771025    3.481274
      6          6           0       -1.351506   -0.140297    2.427385
      7          1           0        0.573224    0.855097    2.320530
      8          1           0       -0.611249    1.470725    1.174183
      9          1           0        1.288545    0.055821    0.125553
     10          1           0        0.694208   -1.351132    0.993871
     11          1           0       -1.374163   -0.120861   -0.823500
     12          1           0        1.008743    1.911930   -2.102874
     13          6           0        1.414674   -1.160089   -3.064501
     14          1           0       -2.737525    0.319079    4.091649
     15          1           0       -2.159246   -0.476870    1.744056
     16          1           0       -0.975961   -1.066586    2.909496
     17          1           0        0.684130   -1.532658   -2.306660
     18          1           0        2.410283   -1.456951   -2.701675
     19          1           0        1.225706   -1.692695   -4.008546
     20          8           0       -1.574326    1.910996    3.660291
     21          8           0        1.089002    0.925736   -2.017194
     22          8           0        1.389770    0.992036   -4.229519
 ---------------------------------------------------------------------
                    Distance matrix (angstroms):
                    1          2          3          4          5
     1  C    0.000000
     2  C    1.534954   0.000000
     3  C    2.546721   1.439035   0.000000
     4  C    5.113197   3.971164   3.325627   0.000000
     5  C    2.529682   3.893099   4.571598   7.480538   0.000000
     6  C    1.531859   2.542492   3.201086   6.278302   1.511435
     7  H    1.108655   2.181765   3.460169   5.637045   2.767221
     8  H    1.109013   2.184492   2.780432   4.954678   2.751520
     9  H    2.190271   1.130379   2.041413   3.375569   4.709453
    10  H    2.193292   1.115529   2.101624   4.588468   4.197138
    11  H    2.783541   2.210936   1.068085   3.638208   4.432127
    12  H    4.166945   3.574334   3.324746   1.992616   6.415917
    13  C    5.253897   3.844493   3.140826   1.478689   7.603461
    14  H    3.520410   4.748576   5.305875   8.376082   1.103200
    15  H    2.179713   2.772828   2.897303   6.124101   2.150440
    16  H    2.180480   2.787741   3.575905   6.703557   2.151294
    17  H    4.538036   3.091285   2.235442   2.154288   6.758656
    18  H    5.448981   3.995811   3.654827   2.144878   7.880031
    19  H    6.233553   4.818620   3.941070   2.141333   8.495434
    20  O    2.798048   4.320905   5.101738   7.650713   1.209705
    21  O    3.897455   2.978236   2.636527   1.390199   6.278220
    22  O    6.095721   5.081949   4.396388   1.206885   8.400897
                    6          7          8          9         10
     6  C    0.000000
     7  H    2.169519   0.000000
     8  H    2.171149   1.759570   0.000000
     9  H    3.508099   2.443041   2.590520   0.000000
    10  H    2.775974   2.577229   3.114420   1.756909   0.000000
    11  H    3.251022   3.824884   2.665693   2.832302   3.015720
    12  H    5.505057   4.568706   3.682137   2.913644   4.509583
    13  C    6.233180   5.810988   5.384421   3.416254   4.126252
    14  H    2.214012   3.792787   3.789320   5.657602   4.915549
    15  H    1.110254   3.094002   2.552288   3.845851   3.077225
    16  H    1.109719   2.537660   3.095525   3.760069   2.557352
    17  H    5.337945   5.208125   4.776461   2.967195   3.305534
    18  H    6.495528   5.826054   5.720421   3.397057   4.075926
    19  H    7.104446   6.853771   6.343682   4.489101   5.042155
    20  O    2.403645   2.742599   2.702238   4.912441   4.785135
    21  O    5.181389   4.368852   3.656877   2.321193   3.795590
    22  O    7.287739   6.602170   5.782146   4.455715   5.766979
                   11         12         13         14         15
    11  H    0.000000
    12  H    3.383382   0.000000
    13  C    3.725545   3.244504   0.000000
    14  H    5.119668   7.412409   8.404712   0.000000
    15  H    2.708402   5.526426   6.030084   2.545414   0.000000
    16  H    3.871463   6.159096   6.435256   2.533902   1.762436
    17  H    2.903360   3.465846   1.116614   7.488325   5.060412
    18  H    4.431107   3.697598   1.100458   8.706518   6.450246
    19  H    4.401646   4.083133   1.100272   9.239458   6.784435
    20  O    4.926753   6.315561   7.974240   2.018242   3.117048
    21  O    2.930436   0.993157   2.356604   7.233831   5.163857
    22  O    4.525354   2.348192   2.447351   9.312855   7.101886
                   16         17         18         19         20
    16  H    0.000000
    17  H    5.493761   0.000000
    18  H    6.565385   1.772392   0.000000
    19  H    7.286882   1.793135   1.779524   0.000000
    20  O    3.128534   7.250095   8.227684   8.924002   0.000000
    21  O    5.701377   2.508270   2.809180   3.292469   6.348061
    22  O    7.797445   3.251061   3.061583   2.698800   8.478175
                   21         22
    21  O    0.000000
    22  O    2.233661   0.000000
 Symmetry turned off by external request.
 Stoichiometry    C7H12O3
 Framework group  C1[X(C7H12O3)]
 Deg. of freedom    60
 Full point group                 C1      NOp   1
 Rotational constants (GHZ):      3.5825110      0.3690455      0.3476632
 Leave Link  202 at Tue Feb 16 09:45:40 2021, MaxMem=    33554432 cpu:         0.0
 (Enter /cm/shared/apps/Gaussian09/g09/l301.exe)
 Standard basis: VSTO-6G (5D, 7F)
 Ernie: Thresh=  0.10000D-02 Tol=  0.10000D-05 Strict=F.
  NNHCO=     0 NNPyr=     0 NCTC=     0               EPep=         0.000000000
    EC=       239.951846191  ECS=         4.190596886   EG=         0.350458438
   EHC=         0.001390391  EAt=       -66.250074573  AtH=         3.187411664
 EPDDG=         0.000000000  ECC=       244.494291906 EAtT=        69.437486237
    52 basis functions,   312 primitive gaussians,    52 cartesian basis functions
    29 alpha electrons       29 beta electrons
       nuclear repulsion energy       313.9317781433 Hartrees.
 IExCor=    0 DFT=F Ex=HF Corr=None ExCW=0 ScaHFX=  1.000000
 ScaDFX=  1.000000  1.000000  1.000000  1.000000 ScalE2=  1.000000  1.000000
 IRadAn=      0 IRanWt=     -1 IRanGd=            0 ICorTp=0 IEmpDi=  4
 Integral buffers will be    131072 words long.
 Regular integral format.
 Two-electron integral symmetry is turned off.
 Leave Link  301 at Tue Feb 16 09:45:40 2021, MaxMem=    33554432 cpu:         0.0
 (Enter /cm/shared/apps/Gaussian09/g09/l302.exe)
 Do NDO integrals.
 NPDir=0 NMtPBC=     1 NCelOv=     1 NCel=       1 NClECP=     1 NCelD=      1
         NCelK=      1 NCelE2=     1 NClLst=     1 CellRange=     0.0.
 One-electron integrals computed using PRISM.
 NBasis=    52 RedAO= F EigKep=  0.00D+00  NBF=    52
 NBsUse=    52 1.00D-04 EigRej=  0.00D+00 NBFU=    52
 Leave Link  302 at Tue Feb 16 09:45:40 2021, MaxMem=    33554432 cpu:         0.1
 (Enter /cm/shared/apps/Gaussian09/g09/l303.exe)
 DipDrv:  MaxL=1.
 Leave Link  303 at Tue Feb 16 09:45:40 2021, MaxMem=    33554432 cpu:         0.0
 (Enter /cm/shared/apps/Gaussian09/g09/l401.exe)
 Initial guess from the checkpoint file:  "/local/Gau-121138.chk"
 B after Tr=    -0.006219    0.003274    0.003788
         Rot=    0.999997    0.001215   -0.000812   -0.002048 Ang=   0.29 deg.
 Guess basis will be translated and rotated to current coordinates.
 JPrj=0 DoOrth=T DoCkMO=T.
 Initial guess <Sx>= 0.0000 <Sy>= 0.0000 <Sz>= 0.0000 <S**2>= 0.5516 S= 0.3953
 Leave Link  401 at Tue Feb 16 09:45:40 2021, MaxMem=    33554432 cpu:         0.1
 (Enter /cm/shared/apps/Gaussian09/g09/l508.exe)
 Direct SCF.
 Tight linear equation convergence will be used.
 UPM6 wavefunction.
 Quadratic Convergence SCF Method.
 Line search only if initial step raises energy.
 Two-electron integral symmetry not used.
 ReadGW:  IGet=1 IStart=       59293 Next=       59293 LGW=           0.
 Keep J ints in memory in canonical form, NReq=905730.
 FoFCou: FMM=F IPFlag=           0 FMFlag=           0 FMFlg1=           0
         NFxFlg=           0 DoJE=F BraDBF=F KetDBF=F FulRan=T
         wScrn=  0.000000 ICntrl=     600 IOpCl=  2 I1Cent=           0 NGrid=           0
         NMat0=    1 NMatS0=    112 NMatT0=    0 NMatD0=    1 NMtDS0=    0 NMtDT0=    0
 Symmetry not used in FoFCou.
 Iteration   1 EE=-0.985228498049651E-01                                Grad=3.115D-02 Max rot=    0.2768 deg.
 Gradient too large for Newton-Raphson -- use scaled steepest descent instead.
 Alpha Gap=     0.346 HL deriv= 9.34D-04
  Beta Gap=     0.344 HL deriv= 2.00D-04
     ILin= 1 X=0.000D+00 Y=-9.852284980497D-02 DE= 0.00D+00 F= -2.67D-03
     ILin= 2 X=3.000D-01 Y=-9.925827214124D-02 DE=-7.35D-04 F= -2.23D-03
     ILin= 3 X=6.000D-01 Y=-9.986036014874D-02 DE=-1.34D-03 F= -1.78D-03
     ILin= 4 X=1.200D+00 Y=-1.006643660695D-01 DE=-2.14D-03 F= -8.95D-04
     ILin= 5 X=2.400D+00 Y=-1.006710044059D-01 DE=-2.15D-03 F=  8.84D-04
     Accept linear search using points  4 and  5.
     An  expanding polynomial of degree  5 produced  1.8049
 Iteration   2 EE=-0.100934627887057     Delta-E=       -0.002411778082 Grad=6.448D-03 Max rot=    0.0984 deg.
 QCNR:  CnvC1=3.65D-09 CnvC2=3.65D-08
 LinEq1:  Iter=  0 NonCon=     1 RMS=2.83D-04 Max=4.39D-03 NDo=     1
 AX will form     1 AO Fock derivatives at one time.
 LinEq1:  Iter=  1 NonCon=     1 RMS=7.66D-05 Max=1.15D-03 NDo=     1
 LinEq1:  Iter=  2 NonCon=     1 RMS=1.46D-05 Max=1.75D-04 NDo=     1
 LinEq1:  Iter=  3 NonCon=     1 RMS=2.99D-06 Max=2.17D-05 NDo=     1
 LinEq1:  Iter=  4 NonCon=     1 RMS=5.20D-07 Max=4.62D-06 NDo=     1
 LinEq1:  Iter=  5 NonCon=     1 RMS=9.78D-08 Max=9.71D-07 NDo=     1
 LinEq1:  Iter=  6 NonCon=     1 RMS=1.86D-08 Max=3.18D-07 NDo=     1
 LinEq1:  Iter=  7 NonCon=     1 RMS=5.19D-09 Max=8.93D-08 NDo=     1
 LinEq1:  Iter=  8 NonCon=     0 RMS=9.24D-10 Max=8.05D-09 NDo=     1
 Linear equations converged to 3.652D-09 3.652D-08 after     8 iterations.
 Angle between quadratic step and gradient=  54.53 degrees.
     ILin= 1 X=0.000D+00 Y=-1.009346278871D-01 DE= 0.00D+00 F= -5.17D-04
     ILin= 2 X=1.000D+00 Y=-1.011817774673D-01 DE=-2.47D-04 F=  3.42D-05
     Accept linear search using points  1 and  2.
     An  expanding polynomial of degree  2 produced  0.9414
     Minimum is close to point  2 DX= -5.86D-02 DF= -1.00D-06 DXR=  6.22D-02 DFR=  4.05D-03 which will be used.
 Iteration   3 EE=-0.101181777467332     Delta-E=       -0.000247149580 Grad=3.264D-04 Max rot=    0.0121 deg.
 QCNR:  CnvC1=3.26D-09 CnvC2=3.26D-08
 LinEq1:  Iter=  0 NonCon=     1 RMS=2.32D-05 Max=4.97D-04 NDo=     1
 LinEq1:  Iter=  1 NonCon=     1 RMS=2.43D-06 Max=1.96D-05 NDo=     1
 LinEq1:  Iter=  2 NonCon=     1 RMS=4.68D-07 Max=4.25D-06 NDo=     1
 LinEq1:  Iter=  3 NonCon=     1 RMS=1.21D-07 Max=1.71D-06 NDo=     1
 LinEq1:  Iter=  4 NonCon=     1 RMS=3.38D-08 Max=4.99D-07 NDo=     1
 LinEq1:  Iter=  5 NonCon=     1 RMS=7.87D-09 Max=5.54D-08 NDo=     1
 LinEq1:  Iter=  6 NonCon=     0 RMS=1.37D-09 Max=7.43D-09 NDo=     1
 Linear equations converged to 3.264D-09 3.264D-08 after     6 iterations.
 Angle between quadratic step and gradient=  21.25 degrees.
     ILin= 1 X=0.000D+00 Y=-1.011817774673D-01 DE= 0.00D+00 F= -3.98D-06
     ILin= 2 X=1.000D+00 Y=-1.011837753608D-01 DE=-2.00D-06 F= -2.42D-08
     Reject lnstep minimum 1.006D+00 FVal=-1.011837754354D-01 Lims=  0.00D+00  1.00D+00
     ILin= 3 X=2.000D+00 Y=-1.011818445957D-01 DE=-6.71D-08 F=  3.88D-06
     An  expanding polynomial of degree  3 produced  1.0085
     Minimum is close to point  2 DX=  8.54D-03 DF= -1.43D-10 DXR=  8.47D-03 DFR=  7.18D-05 which will be used.
 Iteration   4 EE=-0.101183775360823     Delta-E=       -0.000001997893 Grad=2.141D-05 Max rot=    0.0002 deg.
 QCNR:  CnvC1=2.14D-10 CnvC2=2.14D-09
 LinEq1:  Iter=  0 NonCon=     1 RMS=7.45D-07 Max=4.22D-06 NDo=     1
 LinEq1:  Iter=  1 NonCon=     1 RMS=1.73D-07 Max=1.70D-06 NDo=     1
 LinEq1:  Iter=  2 NonCon=     1 RMS=3.75D-08 Max=4.82D-07 NDo=     1
 LinEq1:  Iter=  3 NonCon=     1 RMS=9.40D-09 Max=1.06D-07 NDo=     1
 LinEq1:  Iter=  4 NonCon=     1 RMS=2.29D-09 Max=1.71D-08 NDo=     1
 LinEq1:  Iter=  5 NonCon=     1 RMS=4.68D-10 Max=4.34D-09 NDo=     1
 LinEq1:  Iter=  6 NonCon=     0 RMS=4.85D-11 Max=7.08D-10 NDo=     1
 Linear equations converged to 2.141D-10 2.141D-09 after     6 iterations.
 Angle between quadratic step and gradient=  47.03 degrees.
     ILin= 1 X=0.000D+00 Y=-1.011837753608D-01 DE= 0.00D+00 F= -1.91D-09
     ILin= 2 X=1.000D+00 Y=-1.011837763139D-01 DE=-9.53D-10
 Iteration   5 EE=-0.101183776313917     Delta-E=       -0.000000000953 Grad=9.382D-08 Max rot=    0.0000 deg.
 Rotation gradient small -- convergence achieved.
 SCF Done:  E(UPM6) = -0.101183776314     a.u. after    5 cycles
            Convg  =    0.9382D-07                    30 Fock formations.
              S**2 =  0.6465                  -V/T =  0.9970
 <Sx>= 0.0000 <Sy>= 0.0000 <Sz>= 0.0000 <S**2>= 0.6465 S= 0.4469
 <L.S>= 0.000000000000E+00
 Annihilation of the first spin contaminant:
 S**2 before annihilation     0.6465,   after     0.0013
 Leave Link  508 at Tue Feb 16 09:45:40 2021, MaxMem=    33554432 cpu:         0.1
 (Enter /cm/shared/apps/Gaussian09/g09/l801.exe)
 Range of M.O.s used for correlation:     1    52
 NBasis=    52 NAE=    29 NBE=    29 NFC=     0 NFV=     0
 NROrb=     52 NOA=    29 NOB=    29 NVA=    23 NVB=    23
 Leave Link  801 at Tue Feb 16 09:45:40 2021, MaxMem=    33554432 cpu:         0.0
 (Enter /cm/shared/apps/Gaussian09/g09/l1101.exe)
 Using compressed storage, NAtomX=    22.
 Will process     23 centers per pass.
 Leave Link 1101 at Tue Feb 16 09:45:41 2021, MaxMem=    33554432 cpu:         0.0
 (Enter /cm/shared/apps/Gaussian09/g09/l1102.exe)
 Symmetrizing basis deriv contribution to polar:
 IMax=3 JMax=2 DiffMx= 0.00D+00
 Leave Link 1102 at Tue Feb 16 09:45:41 2021, MaxMem=    33554432 cpu:         0.0
 (Enter /cm/shared/apps/Gaussian09/g09/l1110.exe)
 Forming Gx(P) for the SCF density, NAtomX=    22.
 Integral derivatives from FoFJK, PRISM(SPDF).
 Do as many integral derivatives as possible in FoFJK.
 G2DrvN: MDV=      33495261.
 G2DrvN: will do    23 centers at a time, making    1 passes.
 Calling FoFCou, ICntrl=  3107 FMM=F I1Cent=   0 AccDes= 0.00D+00.
 FoFJK:  IHMeth=40 ICntrl=    3107 DoSepK=F KAlg= 0 I1Cent=   0 FoldK=F
 IRaf=         0 NMat=   1 IRICut=       1 DoRegI=T DoRafI=F ISym2E= 0.
 FoFCou: FMM=F IPFlag=           0 FMFlag=      100000 FMFlg1=           0
         NFxFlg=           0 DoJE=F BraDBF=F KetDBF=F FulRan=T
         wScrn=  0.000000 ICntrl=    3107 IOpCl=  1 I1Cent=           0 NGrid=           0
         NMat0=    1 NMatS0=      1 NMatT0=    0 NMatD0=    1 NMtDS0=    0 NMtDT0=    0
 Symmetry not used in FoFCou.
 End of G2Drv F.D. properties file   721 does not exist.
 End of G2Drv F.D. properties file   722 does not exist.
 End of G2Drv F.D. properties file   788 does not exist.
 Leave Link 1110 at Tue Feb 16 09:45:41 2021, MaxMem=    33554432 cpu:         0.0
 (Enter /cm/shared/apps/Gaussian09/g09/l1002.exe)
 Minotr:  UHF open shell wavefunction.
          IDoAtm=1111111111111111111111
          Direct CPHF calculation.
          Differentiating once with respect to electric field.
                with respect to dipole field.
          Differentiating once with respect to nuclear coordinates.
          Electric field/nuclear overlap derivatives assumed to be zero.
          Requested convergence is 1.0D-08 RMS, and 1.0D-07 maximum.
          NewPWx=T KeepS1=F KeepF1=F KeepIn=T MapXYZ=F SortEE=F KeepMc=T.
          MDV=      33495213 using IRadAn=       2.
 Keep J ints in memory in canonical form, NReq=888555.
 FoFCou: FMM=F IPFlag=           0 FMFlag=           0 FMFlg1=           0
         NFxFlg=           0 DoJE=F BraDBF=F KetDBF=F FulRan=T
         wScrn=  0.000000 ICntrl=     600 IOpCl=  2 I1Cent=           0 NGrid=           0
         NMat0=    1 NMatS0=    112 NMatT0=    0 NMatD0=    1 NMtDS0=    0 NMtDT0=    0
 Symmetry not used in FoFCou.
          Solving linear equations separately, MaxMat=       0.
          There are    69 degrees of freedom in the 1st order CPHF.  IDoFFX=5 NUNeed=    69.
 LinEq1:  Iter=  0 NonCon=    69 RMS=1.79D-01 Max=1.72D+00 NDo=    69
 AX will form    69 AO Fock derivatives at one time.
 LinEq1:  Iter=  1 NonCon=    69 RMS=3.04D-02 Max=2.73D-01 NDo=    69
 LinEq1:  Iter=  2 NonCon=    69 RMS=7.27D-03 Max=1.39D-01 NDo=    69
 LinEq1:  Iter=  3 NonCon=    69 RMS=2.01D-03 Max=2.92D-02 NDo=    69
 LinEq1:  Iter=  4 NonCon=    69 RMS=3.27D-04 Max=2.70D-03 NDo=    69
 LinEq1:  Iter=  5 NonCon=    69 RMS=5.92D-05 Max=9.28D-04 NDo=    69
 LinEq1:  Iter=  6 NonCon=    69 RMS=1.46D-05 Max=2.16D-04 NDo=    69
 LinEq1:  Iter=  7 NonCon=    63 RMS=3.91D-06 Max=3.72D-05 NDo=    69
 LinEq1:  Iter=  8 NonCon=    26 RMS=7.39D-07 Max=4.56D-06 NDo=    69
 LinEq1:  Iter=  9 NonCon=     3 RMS=1.10D-07 Max=5.37D-07 NDo=    69
 LinEq1:  Iter= 10 NonCon=     2 RMS=1.62D-08 Max=9.31D-08 NDo=    69
 LinEq1:  Iter= 11 NonCon=     0 RMS=2.31D-09 Max=1.67D-08 NDo=    69
 Linear equations converged to 1.000D-08 1.000D-07 after    11 iterations.
 FullF1:  Do perturbations    1 to     3.
 Isotropic polarizability for W=    0.000000       61.82 Bohr**3.
 End of Minotr F.D. properties file   721 does not exist.
 End of Minotr F.D. properties file   722 does not exist.
 End of Minotr F.D. properties file   788 does not exist.
 Leave Link 1002 at Tue Feb 16 09:45:41 2021, MaxMem=    33554432 cpu:         0.4
[...]
 4485,0.00002607,0.00018701,0.00007922,-0.00030328,0.00000188,0.0003602
 2,-0.00007685,-0.00009355,0.00022345,-0.00001063,-0.00003707,0.0000976
 3,-0.00003688,0.00005798,0.00002500,0.02909569,0.20689807,-0.00030399,
 -0.00030831,-0.00009735,0.00008051,-0.00011180,-0.00023591,-0.00002237
 ,0.00010313,-0.00012817,-0.00800921,-0.05631283,-0.02139876,0.00023537
 ,0.00036603,-0.00010522,-0.00014901,-0.00032013,-0.00001345,0.00015026
 ,0.00031420,-0.00020910,0.00027376,0.00030470,0.00028891,0.00000212,-0
 .00005388,0.00035515,0.00002765,0.00002845,0.00002316,0.00002592,-0.00
 001513,0.00005329,0.00648522,0.06413634,0.07014918,0.00033865,0.000217
 71,0.00039089,0.00087506,0.00058947,0.00015000,0.00029351,-0.00132700,
 0.00055932,-0.08579066,-0.02652560,-0.00442716,-0.00002999,-0.00025210
 ,-0.00019580,0.00020245,0.00006312,0.00030345,-0.00015987,-0.00005236,
 -0.00001147,-0.00019670,-0.00008685,-0.00041706,-0.00069942,-0.0000576
 7,0.00043895,-0.00019883,0.00002157,0.00000988,-0.00025158,0.00041603,
 -0.00033680,0.00407944,-0.00055521,0.00029255,0.38982700,0.00027643,0.
 00035812,-0.00017983,0.00029468,0.00084142,0.00010886,-0.00086958,-0.0
 0077624,0.00143581,-0.02429401,-0.22040187,-0.02108900,-0.00013622,-0.
 00083684,0.00021215,-0.00002743,0.00059211,-0.00007169,-0.00011620,-0.
 00010537,0.00018767,-0.00016969,-0.00033563,0.00038504,-0.00008514,-0.
 00055689,-0.00008250,-0.00002317,-0.00004611,-0.00010928,0.00038731,0.
 00000725,-0.00048037,-0.00048876,0.00205522,-0.00132238,0.01890778,0.4
 8165685,-0.00039587,-0.00000839,-0.00017033,0.00076851,0.00003291,-0.0
 0119883,0.00028446,0.00147489,-0.00158364,-0.00479872,-0.02304036,-0.0
 7537049,-0.00034697,0.00075418,0.00024844,0.00049827,-0.00019333,-0.00
 053075,0.00007963,0.00006552,0.00019570,-0.00022521,0.00014995,0.00024
 399,0.00011978,-0.00017831,0.00083495,0.00009713,-0.00009757,0.0003073
 0,-0.00037280,-0.00075649,0.00012731,0.00112437,0.00107884,-0.00553493
 ,0.00015567,0.01125278,0.42159793,0.00004345,0.00129906,0.00024910,-0.
 00024711,-0.00002734,0.00013731,-0.00001761,0.00000903,0.00002994,0.00
 000601,0.00001379,0.00001040,-0.14731629,-0.00555319,0.06605345,-0.010
 58066,0.00962762,0.01807822,0.00009501,0.00009145,-0.00002988,0.000072
 99,0.00001130,-0.00003581,-0.00001375,0.00006399,0.00001272,0.00002859
 ,0.00000183,0.00001708,0.00001274,-0.00000362,-0.00000755,0.00000820,0
 .00001863,0.00001193,-0.00000581,-0.00000884,0.00000927,0.17234714,0.0
 0055357,-0.00205663,-0.00026948,0.00069628,-0.00002811,-0.00052364,0.0
 0006353,-0.00002282,-0.00005447,-0.00002694,-0.00017383,0.00017081,-0.
 00174136,-0.03073474,0.00062255,0.01997571,-0.00603325,-0.01365264,-0.
 00013491,-0.00031184,0.00004480,-0.00004551,-0.00024215,0.00019662,-0.
 00002388,-0.00016926,0.00002644,-0.00011201,0.00005782,-0.00002755,0.0
 0002348,0.00006262,0.00006763,0.00002525,-0.00009522,-0.00004003,0.000
 02543,0.00007406,-0.00011135,0.01450079,0.05819155,0.00030625,-0.00055
 349,0.00033355,0.00008308,0.00000950,-0.00012481,-0.00000963,0.0000245
 4,-0.00001583,0.00003375,-0.00001612,-0.00006200,0.06594340,0.00343766
 ,-0.10169651,0.01752408,-0.00648767,0.00298814,0.00000285,0.00003679,0
 .00010805,-0.00001887,-0.00011049,0.00006612,0.00001642,-0.00003363,-0
 .00000870,-0.00001335,0.00000409,0.00000634,0.00000175,-0.00001391,0.0
 0001158,0.00003784,-0.00001620,-0.00000246,-0.00002324,0.00001957,0.00
 000449,-0.10876453,-0.01142016,0.09756375,-0.02870197,-0.01621509,0.00
 260426,-0.00073551,0.00027982,-0.00002228,-0.00047552,0.00040226,0.000
 32984,0.00000529,-0.00004956,0.00034899,0.00834746,-0.00324223,0.00218
 293,-0.11825713,-0.07305363,-0.04894639,-0.00182073,-0.00046373,0.0016
 0135,0.00026043,-0.00039987,0.00022389,-0.00002668,-0.00014034,0.00001
 764,-0.00024647,0.00005102,0.00003116,0.00015224,0.00018168,0.00021177
 ,0.00000053,0.00000349,0.00002208,-0.00004478,0.00000360,-0.00014464,-
 0.00051598,0.00068709,-0.00016759,0.15053786,-0.01265591,-0.00177122,0
 .00239607,0.00030034,-0.00039738,-0.00022827,-0.00025021,0.00018565,0.
 00041080,-0.00005130,0.00015778,0.00035406,-0.01186755,-0.03229409,-0.
 01838141,-0.07384867,-0.09297664,-0.04402598,-0.00043170,-0.00004718,0
 .00008399,-0.00037620,-0.00013868,0.00040649,0.00003819,-0.00004411,-0
 .00000843,0.00016699,0.00007015,-0.00008013,0.00030473,-0.00014861,-0.
 00040348,-0.00007100,0.00005456,0.00005543,-0.00000546,-0.00014310,-0.
 00004663,0.00116707,-0.00003780,0.00053846,0.09266413,0.12265210,0.012
 59703,0.00764252,0.00527429,0.00007645,-0.00012084,-0.00039643,-0.0000
 5196,0.00024057,0.00002057,0.00014437,0.00014261,0.00001242,-0.0044818
 5,-0.01368421,-0.00230401,-0.04981237,-0.04460500,-0.06218886,0.001642
 26,0.00022970,-0.00120572,0.00074280,0.00049106,0.00024013,0.00005503,
 -0.00001976,0.00004207,-0.00001656,-0.00002361,0.00012298,0.00023612,-
 0.00033001,-0.00016266,0.00005607,0.00003478,0.00005524,-0.00018470,-0
 .00004191,0.00006725,0.00036143,-0.00022744,0.00013000,0.05488697,0.05
 658157,0.07370907,0.00262655,-0.00824624,0.01817223,-0.00039763,0.0000
 0191,0.00017418,-0.00001594,0.00024631,0.00011300,0.00004521,-0.000015
 65,-0.00000498,-0.00400071,0.01456189,-0.00937775,-0.05126536,0.028605
 39,-0.04679928,0.00013808,-0.00038136,0.00067163,-0.00178415,-0.000285
 68,0.00158549,0.00005457,-0.00007799,0.00010488,-0.00036335,0.00033402
 ,0.00034565,0.00011543,-0.00003525,0.00001940,0.00004484,0.00000998,0.
 00001585,-0.00005881,0.00002521,-0.00001662,0.00003358,0.00033063,0.00
 070995,-0.00764352,0.00243697,-0.01694893,0.06278706,-0.00355668,-0.00
 026027,0.01056727,0.00031321,-0.00025732,-0.00024846,-0.00016261,0.000
 02935,0.00024303,-0.00003073,0.00009901,0.00027038,0.01810511,-0.02688
 115,0.01844609,0.02776894,-0.07045488,0.07080314,-0.00034788,-0.000211
 85,0.00041365,-0.00018669,0.00006805,0.00042719,0.00002258,-0.00002617
 ,-0.00003847,0.00036121,0.00010406,-0.00022073,0.00009626,0.00000269,-
 0.00019664,-0.00003322,0.00004683,0.00005880,0.00001174,-0.00009145,-0
 .00004002,-0.00018735,-0.00018863,-0.00149641,-0.00419100,0.00627081,-
 0.00652440,-0.03766202,0.09327294,0.00741816,0.01229111,-0.02743191,0.
 00013825,-0.00047572,-0.00080027,-0.00007221,0.00014474,0.00009231,0.0
 0007591,0.00007004,-0.00027552,-0.00244896,0.01037259,0.00498210,-0.04
 494904,0.06885831,-0.15114489,0.00015559,0.00038621,0.00027063,0.00157
 913,0.00041734,-0.00129018,0.00004107,0.00014667,0.00001296,0.00055729
 ,-0.00034001,0.00000502,0.00003375,-0.00010276,-0.00008758,0.00003898,
 0.00000440,-0.00001475,-0.00005965,-0.00000771,0.00012254,-0.00001334,
 -0.00057374,-0.00044540,-0.01168866,0.00199858,-0.01307094,0.05021990,
 -0.08977050,0.18957881,-0.00021434,-0.00017523,-0.00021006,-0.00040550
 ,-0.00046969,0.00002894,-0.00034261,0.00092946,-0.00010552,0.00102479,
 -0.01122775,0.00496068,0.00000237,0.00017168,0.00008042,-0.00009759,-0
 .00006554,-0.00014637,0.00008307,0.00001815,-0.00001619,0.00011118,0.0
 0009735,0.00015506,0.00034836,0.00001772,-0.00043703,0.00010500,-0.000
 00338,-0.00000649,0.00005592,-0.00045047,0.00030943,0.00019747,-0.0002
 6290,0.00011947,-0.05842493,-0.03054109,0.05166095,0.00000381,-0.00001
 819,0.00000755,0.00001566,0.00001642,0.00010256,0.00002629,-0.00000269
 ,0.00002838,0.06271388,-0.00014526,-0.00013039,0.00010013,-0.00017050,
 -0.00050384,0.00025145,0.00053379,0.00039198,-0.00080939,-0.01564146,-
 0.03143706,0.02218939,0.00002434,0.00021320,-0.00006589,0.00000250,-0.
 00021507,0.00006405,0.00005235,0.00000375,-0.00008539,0.00008087,0.000
 08508,-0.00024761,0.00005646,0.00036997,-0.00014002,0.00002176,0.00003
 832,0.00004054,-0.00043095,-0.00014032,0.00046895,-0.00009153,-0.00053
 154,0.00019615,-0.02915989,-0.07184148,0.06470841,0.00000670,-0.000023
 81,-0.00001080,-0.00000480,0.00006479,0.00001313,-0.00001731,0.0000380
 6,0.00000568,0.04172917,0.09743955,0.00042810,0.00019105,0.00000929,-0
 .00026024,0.00029853,-0.00005904,0.00034862,-0.00087348,0.00026492,0.0
 0198092,0.01198632,0.00848987,0.00011507,-0.00060791,-0.00006181,-0.00
 024565,0.00027755,0.00025349,-0.00011428,-0.00006785,-0.00001129,0.000
 03601,-0.00024430,0.00001353,-0.00069273,-0.00020760,-0.00067244,-0.00
 010139,0.00003419,-0.00017731,0.00042264,0.00080877,-0.00029682,0.0000
 5750,0.00047842,-0.00036467,0.05199821,0.06722953,-0.15355838,-0.00001
 059,0.00008224,0.00000545,0.00007914,-0.00001262,-0.00005474,0.0000127
 1,-0.00000376,-0.00006780,-0.06493413,-0.08452935,0.17836183,-0.000073
 81,-0.00001529,-0.00009481,-0.00015823,-0.00009725,-0.00010281,-0.0000
 3627,0.00030870,-0.00016048,0.00506558,0.01281843,0.00279576,-0.000023
 38,0.00004425,0.00006474,-0.00000505,0.00001065,-0.00009649,0.00003521
 ,0.00000075,0.00003588,-0.00000583,-0.00000596,0.00008981,0.00018079,-
 0.00002924,0.00001440,0.00005876,-0.00001683,0.00001344,0.00001432,-0.
 00010577,0.00009964,0.00009938,0.00035106,-0.00028595,-0.16425653,0.07
 270332,0.04120698,0.00000111,-0.00000689,0.00000631,-0.00000082,-0.000
 00739,0.00003385,0.00001337,-0.00001007,0.00002211,-0.01070625,0.00210
 727,0.01046332,0.19271243,0.00000905,-0.00002787,0.00005815,-0.0000824
 4,-0.00005980,0.00005476,0.00021713,-0.00018478,-0.00003614,0.02450023
 ,-0.03288744,-0.01219999,0.00002662,0.00005460,-0.00004328,-0.00001356
 ,-0.00007199,0.00005512,0.00000542,0.00000997,-0.00003429,0.00002787,0
 .00002114,-0.00007509,-0.00002801,0.00011290,-0.00004993,-0.00001928,0
 .00002084,-0.00000224,-0.00009046,0.00011874,0.00002596,-0.00067099,-0
 .00017033,-0.00061627,0.07154998,-0.07176300,-0.02156059,0.00000171,-0
 .00000301,-0.00000465,0.00000459,0.00002448,-0.00000829,-0.00000586,0.
 00001893,-0.00000926,-0.00436730,0.00592339,0.00142854,-0.09126684,0.0
 9528204,0.00007444,-0.00000055,-0.00002559,-0.00023731,-0.00001804,0.0
 0013913,-0.00014884,-0.00011955,0.00029521,0.00451171,-0.01158978,0.00
 502942,0.00007110,-0.00014109,-0.00004068,-0.00011006,0.00006924,0.000
 08167,-0.00000829,-0.00002053,-0.00001955,0.00003143,-0.00003588,0.000
 00435,0.00009622,-0.00000545,-0.00029919,0.00001113,0.00001018,-0.0000
 8069,0.00014498,0.00010686,-0.00007024,-0.00018235,-0.00006590,-0.0003
 6423,0.04141069,-0.02164380,-0.04516137,-0.00000277,0.00002321,0.00000
 067,0.00002934,0.00000070,-0.00000687,0.00001132,0.00000006,-0.0000230
 3,0.01909002,-0.00421432,-0.00741276,-0.05073367,0.03122458,0.04662402
 ,-0.00004087,-0.00004291,-0.00005710,-0.00019197,-0.00009860,0.0000472
 9,-0.00014270,0.00007822,0.00006654,-0.00397384,-0.01362291,-0.0112202
 6,0.00004525,0.00000604,0.00002919,-0.00010160,-0.00001102,-0.00003155
 ,0.00002604,0.00001151,-0.00001985,0.00008232,0.00001309,0.00005213,0.
 00008116,0.00001794,-0.00011984,0.00002918,0.00000143,-0.00001923,0.00
 011720,-0.00001079,0.00006394,0.00019091,-0.00025061,0.00017668,-0.111
 96689,-0.01654904,-0.08915986,0.00000123,0.00000242,0.00000523,0.00003
 176,0.00000869,0.00004458,0.00001708,0.00000255,0.00000490,0.00617122,
 0.00076152,0.00046327,-0.02030001,0.00330457,-0.01407281,0.13026262,0.
 00001050,-0.00002405,0.00004003,-0.00010173,-0.00007457,0.00004016,0.0
 0010268,-0.00006311,-0.00006945,-0.02343045,-0.01597407,-0.02460094,0.
 00001182,0.00006632,-0.00003587,-0.00000325,-0.00006344,0.00003137,-0.
 00000123,0.00000044,-0.00001747,0.00000433,0.00002469,-0.00007741,0.00
 000484,0.00004417,-0.00005823,-0.00000162,0.00000723,-0.00000063,-0.00
 003894,0.00007230,0.00007033,0.00057853,-0.00015800,-0.00101823,-0.014
 60934,-0.03579399,-0.01459849,0.00000143,-0.00000399,-0.00000448,0.000
 00481,0.00002469,-0.00000271,-0.00000208,0.00001357,-0.00000464,0.0040
 8567,0.00342007,0.00754603,0.00731217,0.00349283,0.00495885,0.02412606
 ,0.04789636,0.00009900,0.00002106,0.00007215,-0.00004621,0.00006305,0.
 00013544,-0.00001053,-0.00032455,0.00023570,-0.01045166,-0.01794096,-0
 .00348060,0.00007387,-0.00014794,-0.00007165,-0.00007849,0.00003071,0.
 00012849,-0.00002505,-0.00001486,-0.00003906,0.00001987,-0.00002461,-0
 .00010217,-0.00006101,0.00002116,-0.00012943,-0.00001800,0.00001667,-0
 .00006065,0.00006398,0.00017491,-0.00009110,0.00005244,-0.00036062,-0.
 00024023,-0.08954477,-0.01598601,-0.13579260,-0.00000119,0.00002143,-0
 .00000390,0.00002638,0.00001014,-0.00003166,0.00000140,0.00000979,-0.0
 0002879,-0.01066192,0.00313184,-0.02150566,-0.00288365,0.00113217,0.00
 424195,0.11271649,0.02666757,0.15873903,-0.00079938,0.00179346,0.00134
 416,0.00065269,0.00056390,-0.00036319,0.00008677,-0.00007766,-0.000086
 92,-0.00000946,-0.00031206,-0.00112381,-0.15526276,-0.22563259,0.07721
 534,0.01857838,0.00247190,0.00082442,0.00015750,-0.00128086,-0.0003954
 8,-0.00017551,-0.00048172,-0.00042956,0.00001348,-0.00012059,-0.000020
 58,-0.00013487,-0.00005392,0.00016310,-0.00009683,-0.00004886,-0.00002
 313,0.00006789,-0.00025473,-0.00037619,0.00009562,0.00022271,0.0002216
 5,-0.01390234,-0.03482166,0.02435903,-0.00087432,0.00234438,0.00071018
 ,-0.00033630,-0.00038968,-0.00099724,-0.00004067,-0.00004908,-0.000019
 75,0.00001198,-0.00003187,-0.00004416,-0.00005260,-0.00001462,-0.00004
 582,0.15211087,-0.00156915,0.00040938,0.00071775,0.00143100,-0.0000861
 2,-0.00083641,0.00041432,-0.00034991,-0.00044613,-0.00016045,-0.001235
 31,0.00071857,-0.23912870,-0.60296238,0.18591642,0.00170418,-0.0791037
 1,0.00251871,-0.00004001,-0.00117121,-0.00003969,-0.00003194,-0.000849
 33,0.00050358,-0.00033870,-0.00019331,0.00031740,-0.00048682,0.0000380
 0,0.00022334,0.00004922,0.00027232,0.00032537,0.00012804,-0.00055875,-
 0.00021029,0.00018951,0.00054629,-0.00047349,-0.02099099,-0.01854756,0
 .01604813,0.00343420,-0.00133802,0.00035764,0.00020448,-0.00147212,-0.
 00336062,-0.00011750,-0.00012899,0.00038093,-0.00003178,-0.00003427,0.
 00007920,-0.00001084,-0.00003960,0.00009485,0.25557435,0.70509793,0.00
 115054,-0.00125606,-0.00026945,-0.00037366,-0.00040103,0.00049881,-0.0
 0004270,-0.00003132,0.00014299,-0.00029303,0.00043942,0.00099395,0.077
 67459,0.17633759,-0.11603347,0.00078148,0.00181008,0.01837715,-0.00032
 608,0.00035475,-0.00044021,-0.00036587,0.00105924,0.00003208,-0.000064
 27,0.00010763,-0.00007050,0.00007769,-0.00001798,-0.00020869,0.0000161
 7,0.00002694,-0.00006277,-0.00042172,0.00025463,0.00020455,0.00012682,
 -0.00032682,-0.00017123,0.02391542,0.02583868,0.00107922,-0.00125108,0
 .00073860,-0.00021201,0.00098762,-0.00239785,-0.00064757,-0.00003293,0
 .00009710,-0.00001725,-0.00006097,0.00005197,0.00002432,-0.00001290,0.
 00004616,0.00005414,-0.10218378,-0.20203921,0.09770628,0.00041951,-0.0
 0046673,0.00179748,0.00092849,0.00017619,0.00030836,0.00014834,-0.0006
 3804,-0.00006781,-0.04520252,-0.00340294,0.00946759,0.00009533,0.00001
 011,-0.00041194,0.00021487,-0.00022376,0.00042964,-0.00039239,-0.00013
 078,-0.00015903,-0.00060147,0.00058015,-0.00136234,-0.00088264,-0.0003
 5272,0.00029870,-0.00019970,-0.00003954,0.00002312,-0.00016562,0.00016
 514,-0.00001770,-0.01852805,-0.02678022,0.00044696,0.01002350,-0.00446
 247,-0.00491717,-0.00001380,0.00001370,-0.00004770,0.00000242,0.000103
 07,-0.00014321,-0.00008260,0.00004769,-0.00005793,-0.00099524,0.000342
 31,0.00010780,-0.00107788,-0.00086353,-0.00039437,-0.00030839,0.000186
 54,0.00017981,0.00000138,0.00007154,0.00043643,0.03835016,0.00033020,0
 .00064693,0.00032887,-0.00051024,0.00001753,0.00103571,-0.00020657,-0.
 00053895,0.00080192,-0.00314771,-0.08184866,-0.03872231,-0.00042956,-0
 .00128370,0.00041129,0.00009036,0.00095179,-0.00006908,-0.00018462,-0.
 00043875,0.00043479,-0.00062694,-0.00098040,0.00021463,0.00021376,0.00
 002324,-0.00110159,-0.00003216,-0.00005234,-0.00010869,0.00013900,0.00
 011988,-0.00033592,-0.02919721,-0.18788239,-0.01053338,-0.00405329,-0.
 02910594,-0.04004706,-0.00001813,0.00011880,0.00003339,-0.00002919,-0.
 00019479,-0.00009496,0.00000675,-0.00014827,0.00001645,0.00051158,-0.0
 0002383,-0.00143632,-0.00186297,-0.00073975,-0.00009013,0.00093753,-0.
 00286674,0.00076843,0.00063449,0.00078715,-0.00068598,0.03987755,0.284
 67330,0.00071070,0.00136196,-0.00175955,0.00132007,0.00167133,-0.00087
 065,-0.00041483,-0.00019060,0.00003883,0.00871751,-0.03961838,-0.24248
 494,-0.00095449,0.00052375,0.00063071,0.00114588,0.00054617,-0.0009858
 9,-0.00031292,-0.00023303,0.00109374,-0.00079883,-0.00090647,0.0007526
 5,-0.00023679,-0.00147187,0.00050553,-0.00002984,-0.00042282,0.0004378
 4,-0.00000459,0.00018346,-0.00073908,-0.00478385,-0.03977445,-0.040398
 37,-0.00324010,-0.03362790,-0.01516701,-0.00001717,-0.00009162,0.00003
 851,-0.00023538,-0.00027222,-0.00010237,0.00000798,-0.00021558,0.00017
 141,0.00003082,-0.00040836,-0.00256203,-0.00119628,0.00050628,-0.00103
 050,0.00085730,0.00031270,0.00010279,0.00088907,-0.00037541,-0.0006706
 4,-0.02172399,0.06358720,0.41343529,0.00007971,-0.00000897,0.00017814,
 0.00007278,0.00003689,0.00012847,0.00006626,-0.00022632,0.00013328,-0.
 08558792,-0.10294648,0.08129333,0.00006154,-0.00008095,-0.00016833,-0.
 00003108,-0.00002758,0.00021453,-0.00006403,-0.00002795,-0.00009518,0.
 00002560,0.00007442,-0.00021484,-0.00010459,0.00007555,-0.00015111,-0.
 00005054,0.00007183,-0.00009192,-0.00005695,-0.00006814,0.00004673,-0.
 00381583,-0.00125920,0.00082838,0.01637603,-0.01503667,0.00414752,-0.0
 0000252,0.00001516,-0.00001801,0.00000819,0.00003232,-0.00005291,-0.00
 002177,0.00002089,-0.00004558,0.00035328,0.00001185,-0.00012725,-0.001
 55764,-0.00221085,0.00045962,0.00000837,0.00177419,0.00060909,-0.00002
 111,0.00006843,0.00017580,0.01823857,-0.00246267,0.02045358,0.05598247
 ,0.00010643,0.00006198,0.00029575,-0.00026872,0.00021901,0.00040872,-0
 .00008469,-0.00062776,0.00079579,-0.10053455,-0.45147684,0.31212570,0.
 00026875,-0.00113070,-0.00016616,-0.00045480,0.00038091,0.00052286,-0.
 00007083,-0.00013318,-0.00022859,0.00030580,-0.00007348,-0.00035047,-0
 .00000245,0.00015640,-0.00073046,-0.00002297,0.00022553,-0.00039777,0.
 00006405,-0.00025314,0.00011638,-0.00118157,-0.00741727,0.00538825,-0.
 01530060,-0.05450985,0.02149673,-0.00001049,0.00012928,-0.00000299,0.0
 0009311,0.00000031,-0.00006659,-0.00000115,0.00000960,-0.00009210,0.00
 009536,-0.00302818,-0.00265542,-0.00216118,0.00086202,0.00148023,0.001
 31103,0.00002230,0.00263130,-0.00010081,0.00076292,0.00001737,-0.00429
 082,0.01894526,0.04887424,0.12211194,0.49650215,0.00011582,0.00026817,
 -0.00039621,0.00053482,0.00033897,-0.00036843,-0.00019390,0.00029168,-
 0.00035948,0.08715799,0.34312040,-0.32103366,-0.00049021,0.00054525,0.
 00037280,0.00059596,0.00010258,-0.00064330,-0.00003033,0.00000070,0.00
 044380,-0.00056237,-0.00024871,0.00050965,-0.00004485,-0.00056770,0.00
 061916,0.00000609,-0.00028772,0.00037362,0.00002812,0.00024284,-0.0004
 1549,0.00102383,0.00654377,-0.00200328,0.00262634,0.01412342,0.0104468
 1,-0.00000381,-0.00007999,0.00002447,-0.00013729,-0.00012188,0.0000099
 3,0.00000499,-0.00009585,0.00011371,-0.00003895,-0.00076973,-0.0005656
 6,0.00079028,0.00008783,-0.00188952,0.00019760,0.00079868,-0.00217012,
 0.00039994,-0.00036819,-0.00035378,0.01582363,0.02567380,-0.11082301,-
 0.10767419,-0.38941826,0.42785084\\0.00000080,0.00000040,0.00000027,-0
 .00000125,0.00000168,-0.00000094,0.00000147,-0.00000155,0.00000127,0.0
 0000062,0.00000168,-0.00000328,0.00000011,0.00000026,0.,-0.00000006,-0
 .00000014,-0.00000003,-0.00000003,0.00000016,0.00000008,-0.00000004,-0
 .00000004,-0.00000009,0.00000019,-0.00000010,0.00000013,-0.00000021,-0
 .00000101,-0.00000014,-0.00000055,0.00000095,-0.00000092,0.00000001,0.
 00000048,0.00000005,-0.00000016,-0.00000048,0.00000028,-0.00000006,-0.
 00000003,0.00000005,0.00000002,-0.00000003,0.00000009,0.00000004,0.000
 00003,0.00000007,0.00000001,-0.00000008,0.00000009,0.00000013,-0.00000
 007,0.,-0.00000007,-0.00000008,0.,-0.00000021,-0.00000023,-0.00000003,
 -0.00000020,-0.00000035,0.00000167,-0.00000057,-0.00000144,0.00000141\
 \\@


 TO ERR IS HUMAN - AND TO BLAME IT ON A COMPUTER IS EVEN MORE SO.
 Job cpu time:       0 days  0 hours  1 minutes 32.0 seconds.
 File lengths (MBytes):  RWF=     51 Int=      0 D2E=      0 Chk=      2 Scr=      1
 Normal termination of Gaussian 09 at Tue Feb 16 09:47:45 2021.
