 Entering Gaussian System, Link 0=g09
 Initial command:
 /cm/shared/apps/Gaussian09/g09/l1.exe "/local/Gau-126903.inp" -scrdir="/local/"
 Entering Link 1 = /cm/shared/apps/Gaussian09/g09/l1.exe PID=    126904.
  
 Copyright (c) 1988,1990,1992,1993,1995,1998,2003,2009,2013,
            Gaussian, Inc.  All Rights Reserved.
  
 This is part of the Gaussian(R) 09 program.  It is based on
 the Gaussian(R) 03 system (copyright 2003, Gaussian, Inc.),
 the Gaussian(R) 98 system (copyright 1998, Gaussian, Inc.),
 the Gaussian(R) 94 system (copyright 1995, Gaussian, Inc.),
 the Gaussian 92(TM) system (copyright 1992, Gaussian, Inc.),
 the Gaussian 90(TM) system (copyright 1990, Gaussian, Inc.),
 the Gaussian 88(TM) system (copyright 1988, Gaussian, Inc.),
 the Gaussian 86(TM) system (copyright 1986, Carnegie Mellon
 University), and the Gaussian 82(TM) system (copyright 1983,
 Carnegie Mellon University). Gaussian is a federally registered
 trademark of Gaussian, Inc.
  
 This software contains proprietary and confidential information,
 including trade secrets, belonging to Gaussian, Inc.
  
 This software is provided under written license and may be
 used, copied, transmitted, or stored only in accord with that
 written license.
  
 The following legend is applicable only to US Government
 contracts under FAR:
  
                    RESTRICTED RIGHTS LEGEND
  
 Use, reproduction and disclosure by the US Government is
 subject to restrictions as set forth in subparagraphs (a)
 and (c) of the Commercial Computer Software - Restricted
 Rights clause in FAR 52.227-19.
  
 Gaussian, Inc.
 340 Quinnipiac St., Bldg. 40, Wallingford CT 06492
  
  
 ---------------------------------------------------------------
 Warning -- This program may not be used in any manner that
 competes with the business of Gaussian, Inc. or will provide
 assistance to any competitor of Gaussian, Inc.  The licensee
 of this program is prohibited from giving any competitor of
 Gaussian, Inc. access to this program.  By using this program,
 the user acknowledges that Gaussian, Inc. is engaged in the
 business of creating and licensing software in the field of
 computational chemistry and represents and warrants to the
 licensee that it is not a competitor of Gaussian, Inc. and that
 it will not use this program in any manner prohibited above.
 ---------------------------------------------------------------
  

 Cite this work as:
 Gaussian 09, Revision D.01,
 M. J. Frisch, G. W. Trucks, H. B. Schlegel, G. E. Scuseria, 
 M. A. Robb, J. R. Cheeseman, G. Scalmani, V. Barone, B. Mennucci, 
 G. A. Petersson, H. Nakatsuji, M. Caricato, X. Li, H. P. Hratchian, 
 A. F. Izmaylov, J. Bloino, G. Zheng, J. L. Sonnenberg, M. Hada, 
 M. Ehara, K. Toyota, R. Fukuda, J. Hasegawa, M. Ishida, T. Nakajima, 
 Y. Honda, O. Kitao, H. Nakai, T. Vreven, J. A. Montgomery, Jr., 
 J. E. Peralta, F. Ogliaro, M. Bearpark, J. J. Heyd, E. Brothers, 
 K. N. Kudin, V. N. Staroverov, T. Keith, R. Kobayashi, J. Normand, 
 K. Raghavachari, A. Rendell, J. C. Burant, S. S. Iyengar, J. Tomasi, 
 M. Cossi, N. Rega, J. M. Millam, M. Klene, J. E. Knox, J. B. Cross, 
 V. Bakken, C. Adamo, J. Jaramillo, R. Gomperts, R. E. Stratmann, 
 O. Yazyev, A. J. Austin, R. Cammi, C. Pomelli, J. W. Ochterski, 
 R. L. Martin, K. Morokuma, V. G. Zakrzewski, G. A. Voth, 
 P. Salvador, J. J. Dannenberg, S. Dapprich, A. D. Daniels, 
 O. Farkas, J. B. Foresman, J. V. Ortiz, J. Cioslowski, 
 and D. J. Fox, Gaussian, Inc., Wallingford CT, 2013.
 
 ******************************************
 Gaussian 09:  ES64L-G09RevD.01 24-Apr-2013
                16-Feb-2021 
 ******************************************
 %nprocshared=1
 Will use up to    1 processors via shared memory.
 ----------------------------------------------------------------------
 #P upm6 scf=qc opt(calcall, ts, noeigentest, cartesian,maxcycle=100) N
 oSymm, guess=mix
 ----------------------------------------------------------------------
 1/5=1,6=100,10=4,11=1,14=-1,18=10,26=1,38=1/1,3;
 2/12=2,15=1,17=6,18=5,29=2,40=1/2;
 3/5=2,16=1,25=1,41=3900000,71=2,116=2,140=1/1,2,3;
 4/13=-1,35=1/1;
 5/5=2,8=3,35=1,38=5/8;
 8/6=4,10=90,11=11/1;
 11/6=1,8=1,9=11,15=111,16=1,31=1/1,2,10;
 10/6=1,31=1/2;
 6/7=2,8=2,9=2,10=2,18=1,28=1/1;
 7/7=1,10=1,25=1,30=1/1,2,3,16;
 1/5=1,6=100,10=4,11=1,14=-1,18=10,26=1/3(3);
 2/15=1,29=1/2;
 7/7=1,8=1,9=1,25=1,30=1,44=-1/16;
 99/12=1/99;
 2/15=1,29=1/2;
 3/5=2,16=1,25=1,41=3900000,71=2,116=2,135=20,140=1/1,2,3;
 4/5=5,16=3,35=1/1;
 5/5=2,8=3,35=1,38=5/8;
 8/6=4,10=90,11=11/1;
 11/6=1,8=1,9=11,15=111,16=1,31=1/1,2,10;
 10/6=1,31=1/2;
 7/7=1,10=1,25=1,30=1/1,2,3,16;
 1/5=1,6=100,10=4,11=1,14=-1,18=10,26=1/3(-8);
 2/15=1,29=1/2;
 6/7=2,8=2,9=2,10=2,18=1,19=2,28=1/1;
 7/7=1,8=1,9=1,25=1,30=1,44=-1/16;
 99/12=1/99;
 Leave Link    1 at Tue Feb 16 10:25:32 2021, MaxMem=           0 cpu:         0.0
 (Enter /cm/shared/apps/Gaussian09/g09/l101.exe)
 ------------------------------
 Gaussian input prepared by ASE
 ------------------------------
 Symbolic Z-matrix:
 Charge =  0 Multiplicity = 1
 C                    -0.14771   0.20606   1.19025 
 C                     0.55202  -1.12515   0.84876 
 C                    -0.26143  -2.05063   0.16273 
 C                     1.24792   0.86851  -2.72279 
 C                    -1.93102   1.34669   2.5671 
 C                    -1.309     0.02876   2.17017 
 H                     0.59346   0.91399   1.61353 
 H                    -0.50607   0.68742   0.25567 
 H                     1.45861  -0.89163   0.22681 
 H                     0.96296  -1.59529   1.77666 
 H                    -1.10328  -2.47876  -0.22357 
 H                     1.33573   2.10597  -1.16507 
 C                     0.99946  -0.57398  -2.96307 
 H                    -2.82634   1.26408   3.20633 
 H                    -2.0819   -0.63351   1.72713 
 H                    -0.96559  -0.50224   3.0826 
 H                     0.60288  -1.09052  -2.07013 
 H                     1.92851  -1.09077  -3.25438 
 H                     0.27998  -0.71847  -3.78517 
 O                    -1.4971    2.42404   2.22697 
 O                     1.18543   1.14354  -1.37044 
 O                     1.48248   1.76191  -3.50009 
 
 NAtoms=     22 NQM=       22 NQMF=       0 NMMI=      0 NMMIF=      0
                NMic=       0 NMicF=      0.
                    Isotopes and Nuclear Properties:
 (Nuclear quadrupole moments (NQMom) in fm**2, nuclear magnetic moments (NMagM)
  in nuclear magnetons)

  Atom         1           2           3           4           5           6           7           8           9          10
 IAtWgt=          12          12          12          12          12          12           1           1           1           1
 AtmWgt=  12.0000000  12.0000000  12.0000000  12.0000000  12.0000000  12.0000000   1.0078250   1.0078250   1.0078250   1.0078250
 NucSpn=           0           0           0           0           0           0           1           1           1           1
 AtZEff=   0.0000000   0.0000000   0.0000000   0.0000000   0.0000000   0.0000000   0.0000000   0.0000000   0.0000000   0.0000000
 NQMom=    0.0000000   0.0000000   0.0000000   0.0000000   0.0000000   0.0000000   0.0000000   0.0000000   0.0000000   0.0000000
 NMagM=    0.0000000   0.0000000   0.0000000   0.0000000   0.0000000   0.0000000   2.7928460   2.7928460   2.7928460   2.7928460
 AtZNuc=   6.0000000   6.0000000   6.0000000   6.0000000   6.0000000   6.0000000   1.0000000   1.0000000   1.0000000   1.0000000

  Atom        11          12          13          14          15          16          17          18          19          20
 IAtWgt=           1           1          12           1           1           1           1           1           1          16
 AtmWgt=   1.0078250   1.0078250  12.0000000   1.0078250   1.0078250   1.0078250   1.0078250   1.0078250   1.0078250  15.9949146
 NucSpn=           1           1           0           1           1           1           1           1           1           0
 AtZEff=   0.0000000   0.0000000   0.0000000   0.0000000   0.0000000   0.0000000   0.0000000   0.0000000   0.0000000   0.0000000
 NQMom=    0.0000000   0.0000000   0.0000000   0.0000000   0.0000000   0.0000000   0.0000000   0.0000000   0.0000000   0.0000000
 NMagM=    2.7928460   2.7928460   0.0000000   2.7928460   2.7928460   2.7928460   2.7928460   2.7928460   2.7928460   0.0000000
 AtZNuc=   1.0000000   1.0000000   6.0000000   1.0000000   1.0000000   1.0000000   1.0000000   1.0000000   1.0000000   8.0000000

  Atom        21          22
 IAtWgt=          16          16
 AtmWgt=  15.9949146  15.9949146
 NucSpn=           0           0
 AtZEff=   0.0000000   0.0000000
 NQMom=    0.0000000   0.0000000
 NMagM=    0.0000000   0.0000000
 AtZNuc=   8.0000000   8.0000000
 Leave Link  101 at Tue Feb 16 10:25:32 2021, MaxMem=    33554432 cpu:         0.1
 (Enter /cm/shared/apps/Gaussian09/g09/l103.exe)

 GradGradGradGradGradGradGradGradGradGradGradGradGradGradGradGradGradGrad
 Berny optimization.
 Initialization pass.
 No Z-matrix variables, so optimization will use Cartesian coordinates.
 Trust Radius=3.00D-01 FncErr=1.00D-07 GrdErr=1.00D-07
 Number of steps in this run=    100 maximum allowed number of steps=    132.
 Search for a saddle point of order  1.
 GradGradGradGradGradGradGradGradGradGradGradGradGradGradGradGradGradGrad

 Leave Link  103 at Tue Feb 16 10:25:32 2021, MaxMem=    33554432 cpu:         0.0
 (Enter /cm/shared/apps/Gaussian09/g09/l202.exe)
 ---------------------------------------------------------------------------------------------------
                            Z-MATRIX (ANGSTROMS AND DEGREES)
   CD    Cent   Atom    N1       Length/X        N2       Alpha/Y        N3        Beta/Z          J
 ---------------------------------------------------------------------------------------------------
      1      1  C        0  -0.147705          0.206061          1.190248
      2      2  C        0   0.552019         -1.125153          0.848763
      3      3  C        0  -0.261431         -2.050630          0.162727
      4      4  C        0   1.247922          0.868505         -2.722788
      5      5  C        0  -1.931023          1.346688          2.567102
      6      6  C        0  -1.308995          0.028762          2.170170
      7      7  H        0   0.593464          0.913985          1.613529
      8      8  H        0  -0.506066          0.687417          0.255665
      9      9  H        0   1.458610         -0.891625          0.226807
     10     10  H        0   0.962955         -1.595293          1.776664
     11     11  H        0  -1.103275         -2.478756         -0.223565
     12     12  H        0   1.335726          2.105967         -1.165068
     13     13  C        0   0.999458         -0.573977         -2.963073
     14     14  H        0  -2.826340          1.264079          3.206327
     15     15  H        0  -2.081902         -0.633513          1.727128
     16     16  H        0  -0.965589         -0.502241          3.082598
     17     17  H        0   0.602877         -1.090519         -2.070129
     18     18  H        0   1.928505         -1.090770         -3.254380
     19     19  H        0   0.279976         -0.718471         -3.785172
     20     20  O        0  -1.497101          2.424035          2.226968
     21     21  O        0   1.185432          1.143539         -1.370435
     22     22  O        0   1.482483          1.761910         -3.500088
 ---------------------------------------------------------------------------------------------------
                         Z-Matrix orientation:                         
 ---------------------------------------------------------------------
 Center     Atomic      Atomic             Coordinates (Angstroms)
 Number     Number       Type             X           Y           Z
 ---------------------------------------------------------------------
      1          6           0       -0.147705    0.206061    1.190248
      2          6           0        0.552019   -1.125153    0.848763
      3          6           0       -0.261431   -2.050630    0.162727
      4          6           0        1.247922    0.868505   -2.722788
      5          6           0       -1.931023    1.346688    2.567102
      6          6           0       -1.308995    0.028762    2.170170
      7          1           0        0.593464    0.913985    1.613529
      8          1           0       -0.506066    0.687417    0.255665
      9          1           0        1.458610   -0.891625    0.226807
     10          1           0        0.962955   -1.595293    1.776664
     11          1           0       -1.103275   -2.478756   -0.223565
     12          1           0        1.335726    2.105967   -1.165068
     13          6           0        0.999458   -0.573977   -2.963073
     14          1           0       -2.826340    1.264079    3.206327
     15          1           0       -2.081902   -0.633513    1.727128
     16          1           0       -0.965589   -0.502241    3.082598
     17          1           0        0.602877   -1.090519   -2.070129
     18          1           0        1.928505   -1.090770   -3.254380
     19          1           0        0.279976   -0.718471   -3.785172
     20          8           0       -1.497101    2.424035    2.226968
     21          8           0        1.185432    1.143539   -1.370435
     22          8           0        1.482483    1.761910   -3.500088
 ---------------------------------------------------------------------
                    Distance matrix (angstroms):
                    1          2          3          4          5
     1  C    0.000000
     2  C    1.542192   0.000000
     3  C    2.482214   1.410267   0.000000
     4  C    4.206953   4.149088   4.373293   0.000000
     5  C    2.525268   3.902331   4.484454   6.190096   0.000000
     6  C    1.529796   2.557540   3.074262   5.584266   1.510431
     7  H    1.108898   2.178226   3.409489   4.385662   2.733051
     8  H    1.110663   2.180990   2.750525   3.461279   2.794259
     9  H    2.171032   1.123954   2.075076   3.441302   4.687925
    10  H    2.195979   1.118437   2.076354   5.137760   4.201804
    11  H    3.181230   2.392097   1.020399   4.793579   4.806975
    12  H    3.370122   3.887139   4.646638   1.991360   5.017693
    13  C    4.378872   3.877382   3.679806   1.483316   6.546717
    14  H    3.515546   4.762336   5.179725   7.204894   1.103189
    15  H    2.175831   2.819712   2.787416   5.757216   2.156274
    16  H    2.179820   2.771493   3.379200   6.362475   2.148566
    17  H    3.588112   2.919540   2.579629   2.163290   5.819325
    18  H    5.074164   4.328011   4.170584   2.141154   7.397757
    19  H    5.078629   4.659694   4.201628   2.141045   7.035964
    20  O    2.795544   4.323780   5.080413   5.869830   1.210230
    21  O    3.035328   3.236204   3.827103   1.381451   5.025710
    22  O    5.203598   5.302207   5.567128   1.207223   6.973896
                    6          7          8          9         10
     6  C    0.000000
     7  H    2.170903   0.000000
     8  H    2.178038   1.761844   0.000000
     9  H    3.504770   2.435509   2.520746   0.000000
    10  H    2.820312   2.541577   3.111627   1.772817   0.000000
    11  H    3.472742   4.214799   3.257449   3.047142   3.008443
    12  H    4.736364   3.113258   2.724512   3.307261   4.742581
    13  C    5.660604   4.829508   3.770675   3.238372   4.848662
    14  H    2.214038   3.788751   3.797712   5.646715   4.957691
    15  H    1.110081   3.092772   2.528501   3.853934   3.193529
    16  H    1.110143   2.567977   3.101290   3.766152   2.572841
    17  H    4.784159   4.193741   3.130516   2.459218   3.896443
    18  H    6.415645   5.431198   4.627040   3.518398   5.147644
    19  H    6.208807   5.648819   4.350028   4.185109   5.671798
    20  O    2.403319   2.650853   2.807851   4.871393   4.733883
    21  O    4.472223   3.050764   2.390275   2.601480   4.177910
    22  O    6.553471   5.259126   4.383440   4.575103   6.275734
                   11         12         13         14         15
    11  H    0.000000
    12  H    5.277768   0.000000
    13  C    3.943929   3.244688   0.000000
    14  H    5.361150   6.094314   7.488436   0.000000
    15  H    2.857943   5.248784   5.612157   2.518546   0.000000
    16  H    3.854385   5.490124   6.357412   2.568577   1.760876
    17  H    2.871925   3.402018   1.105188   6.718977   4.672906
    18  H    4.506000   3.864678   1.102299   8.360299   6.411542
    19  H    4.206784   3.994622   1.101989   7.903212   5.997594
    20  O    5.495232   4.430800   6.492874   2.017800   3.152845
    21  O    4.435596   0.995506   2.349669   6.087331   4.840277
    22  O    5.950210   2.364790   2.445008   7.986851   6.765107
                   16         17         18         19         20
    16  H    0.000000
    17  H    5.418187   0.000000
    18  H    6.991383   1.777566   0.000000
    19  H    6.983155   1.784393   1.771439   0.000000
    20  O    3.094786   5.935237   7.357568   7.012786   0.000000
    21  O    5.212004   2.412459   3.015550   3.180863   4.666579
    22  O    7.379105   3.309810   2.897773   2.771207   6.489646
                   21         22
    21  O    0.000000
    22  O    2.237419   0.000000
 Symmetry turned off by external request.
 Stoichiometry    C7H12O3
 Framework group  C1[X(C7H12O3)]
 Deg. of freedom    60
 Full point group                 C1      NOp   1
 Rotational constants (GHZ):      1.7254587      0.5420874      0.4372862
 Leave Link  202 at Tue Feb 16 10:25:32 2021, MaxMem=    33554432 cpu:         0.0
 (Enter /cm/shared/apps/Gaussian09/g09/l301.exe)
 Standard basis: VSTO-6G (5D, 7F)
 Ernie: Thresh=  0.10000D-02 Tol=  0.10000D-05 Strict=F.
  NNHCO=     0 NNPyr=     0 NCTC=     0               EPep=         0.000000000
    EC=       244.864933454  ECS=         4.232747237   EG=         0.350675786
   EHC=         0.001425067  EAt=       -66.250074573  AtH=         3.187411664
 EPDDG=         0.000000000  ECC=       249.449781544 EAtT=        69.437486237
    52 basis functions,   312 primitive gaussians,    52 cartesian basis functions
    29 alpha electrons       29 beta electrons
       nuclear repulsion energy       318.8872677807 Hartrees.
 IExCor=    0 DFT=F Ex=HF Corr=None ExCW=0 ScaHFX=  1.000000
 ScaDFX=  1.000000  1.000000  1.000000  1.000000 ScalE2=  1.000000  1.000000
 IRadAn=      0 IRanWt=     -1 IRanGd=            0 ICorTp=0 IEmpDi=  4
 Integral buffers will be    131072 words long.
 Regular integral format.
 Two-electron integral symmetry is turned off.
 Leave Link  301 at Tue Feb 16 10:25:32 2021, MaxMem=    33554432 cpu:         0.0
 (Enter /cm/shared/apps/Gaussian09/g09/l302.exe)
 Do NDO integrals.
 NPDir=0 NMtPBC=     1 NCelOv=     1 NCel=       1 NClECP=     1 NCelD=      1
         NCelK=      1 NCelE2=     1 NClLst=     1 CellRange=     0.0.
 One-electron integrals computed using PRISM.
 NBasis=    52 RedAO= F EigKep=  0.00D+00  NBF=    52
 NBsUse=    52 1.00D-04 EigRej=  0.00D+00 NBFU=    52
 Leave Link  302 at Tue Feb 16 10:25:32 2021, MaxMem=    33554432 cpu:         0.0
 (Enter /cm/shared/apps/Gaussian09/g09/l303.exe)
 DipDrv:  MaxL=1.
 Leave Link  303 at Tue Feb 16 10:25:32 2021, MaxMem=    33554432 cpu:         0.0
 (Enter /cm/shared/apps/Gaussian09/g09/l401.exe)
 Simple Huckel Guess.
 JPrj=0 DoOrth=F DoCkMO=T.
 Mixing orbitals, IMix= 1 IMixAn=  0 NRI=1 NE=   29 Coef=  7.07106781D-01  7.07106781D-01
 Mixing orbitals, IMix= 1 IMixAn=  0 NRI=1 NE=   29 Coef= -7.07106781D-01  7.07106781D-01
 Initial guess <Sx>= 0.0000 <Sy>= 0.0000 <Sz>= 0.0000 <S**2>= 1.0000 S= 0.6180
 Leave Link  401 at Tue Feb 16 10:25:32 2021, MaxMem=    33554432 cpu:         0.0
 (Enter /cm/shared/apps/Gaussian09/g09/l508.exe)
 Direct SCF.
 Tight linear equation convergence will be used.
 UPM6 wavefunction.
 Quadratic Convergence SCF Method.
 Line search only if initial step raises energy.
 Two-electron integral symmetry not used.
 ReadGW:  IGet=1 IStart=       59293 Next=       59293 LGW=           0.
 Keep J ints in memory in canonical form, NReq=905730.
 FoFCou: FMM=F IPFlag=           0 FMFlag=           0 FMFlg1=           0
         NFxFlg=           0 DoJE=F BraDBF=F KetDBF=F FulRan=T
         wScrn=  0.000000 ICntrl=     600 IOpCl=  2 I1Cent=           0 NGrid=           0
         NMat0=    1 NMatS0=    112 NMatT0=    0 NMatD0=    1 NMtDS0=    0 NMtDT0=    0
 Symmetry not used in FoFCou.
 Iteration   1 EE= 0.306655770535713                                    Grad=4.584D-01 Max rot=    5.5576 deg.
 Gradient too large for Newton-Raphson -- use scaled steepest descent instead.
 Alpha Gap=     0.334 HL deriv= 2.29D-02
  Beta Gap=     0.335 HL deriv= 2.31D-02
     ILin= 1 X=0.000D+00 Y= 3.066557705357D-01 DE= 0.00D+00 F= -5.02D-01
     ILin= 2 X=3.000D-01 Y= 1.700364666765D-01 DE=-1.37D-01 F= -4.08D-01
     ILin= 3 X=5.000D-01 Y= 9.486336966268D-02 DE=-2.12D-01 F= -3.43D-01
     ILin= 4 X=7.000D-01 Y= 3.289343497823D-02 DE=-2.74D-01 F= -2.76D-01
     ILin= 5 X=1.100D+00 Y=-4.988393280155D-02 DE=-3.57D-01 F= -1.37D-01
     ILin= 6 X=1.800D+00 Y=-5.553952049490D-02 DE=-3.62D-01 F=  1.23D-01
     Accept linear search using points  5 and  6.
     An  expanding polynomial of degree  6 produced  1.4639
 Iteration   2 EE=-0.755293229212839E-01 Delta-E=       -0.382185093457 Grad=1.310D-01 Max rot=    1.9170 deg.
 Gradient too large for Newton-Raphson -- use scaled steepest descent instead.
 Alpha Gap=     0.351 HL deriv= 5.92D-03
  Beta Gap=     0.350 HL deriv= 5.90D-03
     ILin= 1 X=0.000D+00 Y=-7.552932292128D-02 DE= 0.00D+00 F= -3.75D-02
     ILin= 2 X=7.000D-01 Y=-9.519153509234D-02 DE=-1.97D-02 F= -1.87D-02
     ILin= 3 X=1.300D+00 Y=-1.015030606962D-01 DE=-2.60D-02 F= -2.34D-03
     Reject lnstep minimum 1.589D+00 FVal=-1.023332057015D-01 Lims=  7.00D-01  1.30D+00
     ILin= 4 X=2.400D+00 Y=-8.747002436201D-02 DE=-1.19D-02 F=  2.79D-02
     An  expanding polynomial of degree  4 produced  1.3861
     Minimum is close to point  3 DX=  8.61D-02 DF= -1.01D-04 DXR=  6.21D-02 DFR=  3.90D-03 which will be used.
 Iteration   3 EE=-0.101503060696246     Delta-E=       -0.025973737775 Grad=3.692D-02 Max rot=    0.4332 deg.
 Gradient too large for Newton-Raphson -- use scaled steepest descent instead.
 Alpha Gap=     0.353 HL deriv= 4.01D-03
  Beta Gap=     0.352 HL deriv= 4.24D-03
     ILin= 1 X=0.000D+00 Y=-1.015030606962D-01 DE= 0.00D+00 F= -3.76D-03
     ILin= 2 X=1.400D+00 Y=-1.042349252414D-01 DE=-2.73D-03 F= -1.34D-04
     Reject lnstep minimum 1.419D+00 FVal=-1.042358540223D-01 Lims=  0.00D+00  1.40D+00
     ILin= 3 X=2.800D+00 Y=-1.018633267980D-01 DE=-3.60D-04 F=  3.53D-03
     An  expanding polynomial of degree  3 produced  1.4494
     Minimum is close to point  2 DX=  4.94D-02 DF= -3.18D-06 DXR=  3.41D-02 DFR=  1.16D-03 which will be used.
 Iteration   4 EE=-0.104234925241372     Delta-E=       -0.002731864545 Grad=1.485D-02 Max rot=    0.2179 deg.
 Gradient too large for Newton-Raphson -- use scaled steepest descent instead.
 Alpha Gap=     0.354 HL deriv= 2.71D-03
  Beta Gap=     0.352 HL deriv= 2.96D-03
     ILin= 1 X=0.000D+00 Y=-1.042349252414D-01 DE= 0.00D+00 F= -5.46D-04
     ILin= 2 X=1.400D+00 Y=-1.046023605638D-01 DE=-3.67D-04 F=  2.08D-05
     Accept linear search using points  1 and  2.
     An  expanding polynomial of degree  2 produced  1.3778
     Minimum is close to point  2 DX= -2.22D-02 DF= -1.64D-07 DXR=  1.61D-02 DFR=  4.45D-04 which will be used.
 Iteration   5 EE=-0.104602360563831     Delta-E=       -0.000367435322 Grad=6.212D-03 Max rot=    0.0743 deg.
 QCNR:  CnvC1=3.65D-09 CnvC2=3.65D-08
 LinEq1:  Iter=  0 NonCon=     1 RMS=2.38D-04 Max=1.76D-03 NDo=     1
 AX will form     1 AO Fock derivatives at one time.
 LinEq1:  Iter=  1 NonCon=     1 RMS=7.60D-05 Max=8.09D-04 NDo=     1
 LinEq1:  Iter=  2 NonCon=     1 RMS=1.28D-05 Max=2.15D-04 NDo=     1
 LinEq1:  Iter=  3 NonCon=     1 RMS=1.93D-06 Max=3.12D-05 NDo=     1
 LinEq1:  Iter=  4 NonCon=     1 RMS=5.88D-07 Max=1.00D-05 NDo=     1
 LinEq1:  Iter=  5 NonCon=     1 RMS=1.61D-07 Max=3.33D-06 NDo=     1
 LinEq1:  Iter=  6 NonCon=     1 RMS=3.75D-08 Max=5.41D-07 NDo=     1
 LinEq1:  Iter=  7 NonCon=     1 RMS=7.08D-09 Max=4.36D-08 NDo=     1
 LinEq1:  Iter=  8 NonCon=     0 RMS=1.03D-09 Max=7.70D-09 NDo=     1
 Linear equations converged to 3.652D-09 3.652D-08 after     8 iterations.
 Angle between quadratic step and gradient=  80.57 degrees.
     ILin= 1 X=0.000D+00 Y=-1.046023605638D-01 DE= 0.00D+00 F= -2.07D-04
     ILin= 2 X=1.000D+00 Y=-1.047034380279D-01 DE=-1.01D-04 F=  7.31D-06
     Accept linear search using points  1 and  2.
     An  expanding polynomial of degree  2 produced  0.9669
     Minimum is close to point  2 DX= -3.31D-02 DF= -1.21D-07 DXR=  3.42D-02 DFR=  1.20D-03 which will be used.
 Iteration   6 EE=-0.104703438027855     Delta-E=       -0.000101077464 Grad=7.232D-04 Max rot=    0.0076 deg.
 QCNR:  CnvC1=3.65D-09 CnvC2=3.65D-08
 LinEq1:  Iter=  0 NonCon=     1 RMS=2.46D-05 Max=1.87D-04 NDo=     1
 LinEq1:  Iter=  1 NonCon=     1 RMS=5.49D-06 Max=8.26D-05 NDo=     1
 LinEq1:  Iter=  2 NonCon=     1 RMS=1.28D-06 Max=2.36D-05 NDo=     1
 LinEq1:  Iter=  3 NonCon=     1 RMS=2.95D-07 Max=4.24D-06 NDo=     1
 LinEq1:  Iter=  4 NonCon=     1 RMS=8.53D-08 Max=1.93D-06 NDo=     1
 LinEq1:  Iter=  5 NonCon=     1 RMS=2.19D-08 Max=3.47D-07 NDo=     1
 LinEq1:  Iter=  6 NonCon=     1 RMS=4.78D-09 Max=5.14D-08 NDo=     1
 LinEq1:  Iter=  7 NonCon=     0 RMS=7.79D-10 Max=9.54D-09 NDo=     1
 Linear equations converged to 3.652D-09 3.652D-08 after     7 iterations.
 Angle between quadratic step and gradient=  80.02 degrees.
     ILin= 1 X=0.000D+00 Y=-1.047034380279D-01 DE= 0.00D+00 F= -2.32D-06
     ILin= 2 X=1.000D+00 Y=-1.047045650085D-01 DE=-1.13D-06 F=  6.15D-08
     Accept linear search using points  1 and  2.
     An  expanding polynomial of degree  2 produced  0.9741
     Minimum is close to point  2 DX= -2.59D-02 DF= -7.95D-10 DXR=  2.66D-02 DFR=  7.05D-04 which will be used.
 Iteration   7 EE=-0.104704565008547     Delta-E=       -0.000001126981 Grad=1.633D-04 Max rot=    0.0017 deg.
 QCNR:  CnvC1=1.63D-09 CnvC2=1.63D-08
 LinEq1:  Iter=  0 NonCon=     1 RMS=6.16D-06 Max=7.54D-05 NDo=     1
 LinEq1:  Iter=  1 NonCon=     1 RMS=1.89D-06 Max=2.80D-05 NDo=     1
 LinEq1:  Iter=  2 NonCon=     1 RMS=4.12D-07 Max=4.26D-06 NDo=     1
 LinEq1:  Iter=  3 NonCon=     1 RMS=9.89D-08 Max=1.68D-06 NDo=     1
 LinEq1:  Iter=  4 NonCon=     1 RMS=2.62D-08 Max=5.41D-07 NDo=     1
 LinEq1:  Iter=  5 NonCon=     1 RMS=7.30D-09 Max=8.95D-08 NDo=     1
 LinEq1:  Iter=  6 NonCon=     1 RMS=1.54D-09 Max=2.00D-08 NDo=     1
 LinEq1:  Iter=  7 NonCon=     0 RMS=2.90D-10 Max=3.71D-09 NDo=     1
 Linear equations converged to 1.633D-09 1.633D-08 after     7 iterations.
 Angle between quadratic step and gradient=  80.07 degrees.
     ILin= 1 X=0.000D+00 Y=-1.047045650085D-01 DE= 0.00D+00 F= -1.93D-07
     ILin= 2 X=1.000D+00 Y=-1.047046552856D-01 DE=-9.03D-08 F=  1.29D-08
     Accept linear search using points  1 and  2.
     An  expanding polynomial of degree  2 produced  0.9374
     Minimum is close to point  2 DX= -6.26D-02 DF= -4.05D-10 DXR=  6.68D-02 DFR=  4.48D-03 which will be used.
 Iteration   8 EE=-0.104704655285559     Delta-E=       -0.000000090277 Grad=7.609D-05 Max rot=    0.0007 deg.
 QCNR:  CnvC1=7.61D-10 CnvC2=7.61D-09
 LinEq1:  Iter=  0 NonCon=     1 RMS=2.61D-06 Max=3.35D-05 NDo=     1
 LinEq1:  Iter=  1 NonCon=     1 RMS=6.78D-07 Max=1.18D-05 NDo=     1
 LinEq1:  Iter=  2 NonCon=     1 RMS=1.53D-07 Max=2.35D-06 NDo=     1
 LinEq1:  Iter=  3 NonCon=     1 RMS=3.75D-08 Max=5.86D-07 NDo=     1
 LinEq1:  Iter=  4 NonCon=     1 RMS=1.04D-08 Max=2.41D-07 NDo=     1
 LinEq1:  Iter=  5 NonCon=     1 RMS=2.75D-09 Max=3.28D-08 NDo=     1
 LinEq1:  Iter=  6 NonCon=     0 RMS=5.56D-10 Max=6.38D-09 NDo=     1
 Linear equations converged to 7.609D-10 7.609D-09 after     6 iterations.
 Angle between quadratic step and gradient=  74.58 degrees.
     ILin= 1 X=0.000D+00 Y=-1.047046552856D-01 DE= 0.00D+00 F= -2.88D-08
     ILin= 2 X=1.000D+00 Y=-1.047046690792D-01 DE=-1.38D-08
 Iteration   9 EE=-0.104704669079183     Delta-E=       -0.000000013794 Grad=2.750D-05 Max rot=    0.0002 deg.
 QCNR:  CnvC1=2.75D-10 CnvC2=2.75D-09
 LinEq1:  Iter=  0 NonCon=     1 RMS=9.28D-07 Max=1.07D-05 NDo=     1
 LinEq1:  Iter=  1 NonCon=     1 RMS=2.97D-07 Max=4.57D-06 NDo=     1
 LinEq1:  Iter=  2 NonCon=     1 RMS=6.32D-08 Max=7.78D-07 NDo=     1
 LinEq1:  Iter=  3 NonCon=     1 RMS=1.83D-08 Max=3.26D-07 NDo=     1
 LinEq1:  Iter=  4 NonCon=     1 RMS=4.97D-09 Max=6.58D-08 NDo=     1
 LinEq1:  Iter=  5 NonCon=     1 RMS=1.19D-09 Max=1.16D-08 NDo=     1
 LinEq1:  Iter=  6 NonCon=     0 RMS=2.66D-10 Max=2.23D-09 NDo=     1
 Linear equations converged to 2.750D-10 2.750D-09 after     6 iterations.
 Angle between quadratic step and gradient=  81.17 degrees.
     ILin= 1 X=0.000D+00 Y=-1.047046690792D-01 DE= 0.00D+00 F= -5.87D-09
     ILin= 2 X=1.000D+00 Y=-1.047046714318D-01 DE=-2.35D-09
 Iteration  10 EE=-0.104704671431762     Delta-E=       -0.000000002353 Grad=2.533D-05 Max rot=    0.0002 deg.
 QCNR:  CnvC1=2.53D-10 CnvC2=2.53D-09
 LinEq1:  Iter=  0 NonCon=     1 RMS=8.10D-07 Max=6.81D-06 NDo=     1
 LinEq1:  Iter=  1 NonCon=     1 RMS=2.15D-07 Max=2.27D-06 NDo=     1
 LinEq1:  Iter=  2 NonCon=     1 RMS=4.87D-08 Max=6.41D-07 NDo=     1
 LinEq1:  Iter=  3 NonCon=     1 RMS=1.38D-08 Max=2.39D-07 NDo=     1
 LinEq1:  Iter=  4 NonCon=     1 RMS=3.72D-09 Max=5.68D-08 NDo=     1
 LinEq1:  Iter=  5 NonCon=     1 RMS=8.54D-10 Max=1.23D-08 NDo=     1
 LinEq1:  Iter=  6 NonCon=     1 RMS=2.47D-10 Max=2.89D-09 NDo=     1
 LinEq1:  Iter=  7 NonCon=     0 RMS=3.44D-11 Max=3.92D-10 NDo=     1
 Linear equations converged to 2.533D-10 2.533D-09 after     7 iterations.
 Angle between quadratic step and gradient=  83.84 degrees.
     ILin= 1 X=0.000D+00 Y=-1.047046714318D-01 DE= 0.00D+00 F= -3.90D-09
     ILin= 2 X=1.000D+00 Y=-1.047046733206D-01 DE=-1.89D-09
 Iteration  11 EE=-0.104704673320612     Delta-E=       -0.000000001889 Grad=9.062D-06 Max rot=    0.0001 deg.
 QCNR:  CnvC1=9.06D-11 CnvC2=9.06D-10
 LinEq1:  Iter=  0 NonCon=     1 RMS=3.67D-07 Max=4.18D-06 NDo=     1
 LinEq1:  Iter=  1 NonCon=     1 RMS=6.42D-08 Max=6.88D-07 NDo=     1
 LinEq1:  Iter=  2 NonCon=     1 RMS=1.77D-08 Max=2.60D-07 NDo=     1
 LinEq1:  Iter=  3 NonCon=     1 RMS=3.81D-09 Max=5.12D-08 NDo=     1
 LinEq1:  Iter=  4 NonCon=     1 RMS=1.10D-09 Max=2.39D-08 NDo=     1
 LinEq1:  Iter=  5 NonCon=     1 RMS=3.00D-10 Max=3.87D-09 NDo=     1
 LinEq1:  Iter=  6 NonCon=     0 RMS=6.71D-11 Max=6.89D-10 NDo=     1
 Linear equations converged to 9.062D-11 9.062D-10 after     6 iterations.
 Angle between quadratic step and gradient=  59.46 degrees.
     ILin= 1 X=0.000D+00 Y=-1.047046733206D-01 DE= 0.00D+00 F= -4.75D-10
     ILin= 2 X=1.000D+00 Y=-1.047046735540D-01 DE=-2.33D-10
 Iteration  12 EE=-0.104704673554011     Delta-E=       -0.000000000233 Grad=2.113D-06 Max rot=    0.0000 deg.
 QCNR:  CnvC1=2.11D-11 CnvC2=2.11D-10
 LinEq1:  Iter=  0 NonCon=     1 RMS=7.28D-08 Max=7.47D-07 NDo=     1
 LinEq1:  Iter=  1 NonCon=     1 RMS=2.51D-08 Max=3.24D-07 NDo=     1
 LinEq1:  Iter=  2 NonCon=     1 RMS=4.80D-09 Max=8.52D-08 NDo=     1
 LinEq1:  Iter=  3 NonCon=     1 RMS=1.46D-09 Max=2.27D-08 NDo=     1
 LinEq1:  Iter=  4 NonCon=     1 RMS=3.39D-10 Max=4.83D-09 NDo=     1
 LinEq1:  Iter=  5 NonCon=     1 RMS=9.09D-11 Max=1.08D-09 NDo=     1
 LinEq1:  Iter=  6 NonCon=     0 RMS=1.71D-11 Max=1.30D-10 NDo=     1
 Linear equations converged to 2.113D-11 2.113D-10 after     6 iterations.
 Angle between quadratic step and gradient=  82.17 degrees.
     ILin= 1 X=0.000D+00 Y=-1.047046735540D-01 DE= 0.00D+00 F= -6.40D-11
     ILin= 2 X=1.000D+00 Y=-1.047046735803D-01 DE=-2.63D-11
 Iteration  13 EE=-0.104704673580329     Delta-E=       -0.000000000026 Grad=2.514D-06 Max rot=    0.0000 deg.
 QCNR:  CnvC1=2.51D-11 CnvC2=2.51D-10
 LinEq1:  Iter=  0 NonCon=     1 RMS=8.52D-08 Max=6.47D-07 NDo=     1
 LinEq1:  Iter=  1 NonCon=     1 RMS=1.91D-08 Max=2.18D-07 NDo=     1
 LinEq1:  Iter=  2 NonCon=     1 RMS=4.81D-09 Max=6.65D-08 NDo=     1
 LinEq1:  Iter=  3 NonCon=     1 RMS=1.19D-09 Max=1.69D-08 NDo=     1
 LinEq1:  Iter=  4 NonCon=     1 RMS=3.37D-10 Max=6.79D-09 NDo=     1
 LinEq1:  Iter=  5 NonCon=     1 RMS=7.53D-11 Max=8.48D-10 NDo=     1
 LinEq1:  Iter=  6 NonCon=     0 RMS=2.17D-11 Max=2.27D-10 NDo=     1
 Linear equations converged to 2.514D-11 2.514D-10 after     6 iterations.
 Angle between quadratic step and gradient=  68.90 degrees.
     ILin= 1 X=0.000D+00 Y=-1.047046735803D-01 DE= 0.00D+00 F= -2.69D-11
     ILin= 2 X=1.000D+00 Y=-1.047046735937D-01 DE=-1.34D-11
 Iteration  14 EE=-0.104704673593687     Delta-E=       -0.000000000013 Grad=7.155D-07 Max rot=    0.0000 deg.
 QCNR:  CnvC1=7.15D-12 CnvC2=7.15D-11
 LinEq1:  Iter=  0 NonCon=     1 RMS=2.32D-08 Max=2.42D-07 NDo=     1
 LinEq1:  Iter=  1 NonCon=     1 RMS=7.94D-09 Max=1.03D-07 NDo=     1
 LinEq1:  Iter=  2 NonCon=     1 RMS=1.55D-09 Max=2.56D-08 NDo=     1
 LinEq1:  Iter=  3 NonCon=     1 RMS=4.69D-10 Max=7.21D-09 NDo=     1
 LinEq1:  Iter=  4 NonCon=     1 RMS=1.12D-10 Max=1.51D-09 NDo=     1
 LinEq1:  Iter=  5 NonCon=     1 RMS=2.92D-11 Max=3.56D-10 NDo=     1
 LinEq1:  Iter=  6 NonCon=     0 RMS=6.35D-12 Max=4.22D-11 NDo=     1
 Linear equations converged to 7.155D-12 7.155D-11 after     6 iterations.
 Angle between quadratic step and gradient=  82.28 degrees.
     ILin= 1 X=0.000D+00 Y=-1.047046735937D-01 DE= 0.00D+00 F= -5.58D-12
     ILin= 2 X=1.000D+00 Y=-1.047046735960D-01 DE=-2.27D-12
 Iteration  15 EE=-0.104704673595961     Delta-E=       -0.000000000002 Grad=8.096D-07 Max rot=    0.0000 deg.
 QCNR:  CnvC1=8.10D-12 CnvC2=8.10D-11
 LinEq1:  Iter=  0 NonCon=     1 RMS=2.66D-08 Max=1.77D-07 NDo=     1
 LinEq1:  Iter=  1 NonCon=     1 RMS=6.19D-09 Max=7.59D-08 NDo=     1
 LinEq1:  Iter=  2 NonCon=     1 RMS=1.56D-09 Max=2.03D-08 NDo=     1
 LinEq1:  Iter=  3 NonCon=     1 RMS=3.92D-10 Max=6.02D-09 NDo=     1
 LinEq1:  Iter=  4 NonCon=     1 RMS=1.15D-10 Max=1.93D-09 NDo=     1
 LinEq1:  Iter=  5 NonCon=     1 RMS=2.42D-11 Max=3.12D-10 NDo=     1
 LinEq1:  Iter=  6 NonCon=     0 RMS=7.46D-12 Max=7.83D-11 NDo=     1
 Linear equations converged to 8.096D-12 8.096D-11 after     6 iterations.
 Angle between quadratic step and gradient=  71.96 degrees.
     ILin= 1 X=0.000D+00 Y=-1.047046735960D-01 DE= 0.00D+00 F= -2.81D-12
     ILin= 2 X=1.000D+00 Y=-1.047046735977D-01 DE=-1.71D-12
 Iteration  16 EE=-0.104704673597666     Delta-E=       -0.000000000002 Grad=2.745D-07 Max rot=    0.0000 deg.
 Rotation gradient small -- convergence achieved.
 SCF Done:  E(UPM6) = -0.104704673598     a.u. after   16 cycles
            Convg  =    0.2745D-06                    95 Fock formations.
              S**2 =  0.9877                  -V/T =  0.9969
 <Sx>= 0.0000 <Sy>= 0.0000 <Sz>= 0.0000 <S**2>= 0.9877 S= 0.6125
 <L.S>= 0.000000000000E+00
 Annihilation of the first spin contaminant:
 S**2 before annihilation     0.9877,   after     0.0054
 Leave Link  508 at Tue Feb 16 10:25:32 2021, MaxMem=    33554432 cpu:         0.1
 (Enter /cm/shared/apps/Gaussian09/g09/l801.exe)
 Range of M.O.s used for correlation:     1    52
 NBasis=    52 NAE=    29 NBE=    29 NFC=     0 NFV=     0
 NROrb=     52 NOA=    29 NOB=    29 NVA=    23 NVB=    23
 Leave Link  801 at Tue Feb 16 10:25:32 2021, MaxMem=    33554432 cpu:         0.0
 (Enter /cm/shared/apps/Gaussian09/g09/l1101.exe)
 Using compressed storage, NAtomX=    22.
 Will process     23 centers per pass.
 Leave Link 1101 at Tue Feb 16 10:25:32 2021, MaxMem=    33554432 cpu:         0.1
 (Enter /cm/shared/apps/Gaussian09/g09/l1102.exe)
 Symmetrizing basis deriv contribution to polar:
 IMax=3 JMax=2 DiffMx= 0.00D+00
 Leave Link 1102 at Tue Feb 16 10:25:32 2021, MaxMem=    33554432 cpu:         0.0
 (Enter /cm/shared/apps/Gaussian09/g09/l1110.exe)
 Forming Gx(P) for the SCF density, NAtomX=    22.
 Integral derivatives from FoFJK, PRISM(SPDF).
 Do as many integral derivatives as possible in FoFJK.
 G2DrvN: MDV=      33495261.
 G2DrvN: will do    23 centers at a time, making    1 passes.
 Calling FoFCou, ICntrl=  3107 FMM=F I1Cent=   0 AccDes= 0.00D+00.
 FoFJK:  IHMeth=40 ICntrl=    3107 DoSepK=F KAlg= 0 I1Cent=   0 FoldK=F
 IRaf=         0 NMat=   1 IRICut=       1 DoRegI=T DoRafI=F ISym2E= 0.
 FoFCou: FMM=F IPFlag=           0 FMFlag=      100000 FMFlg1=           0
         NFxFlg=           0 DoJE=F BraDBF=F KetDBF=F FulRan=T
         wScrn=  0.000000 ICntrl=    3107 IOpCl=  1 I1Cent=           0 NGrid=           0
         NMat0=    1 NMatS0=      1 NMatT0=    0 NMatD0=    1 NMtDS0=    0 NMtDT0=    0
 Symmetry not used in FoFCou.
 End of G2Drv F.D. properties file   721 does not exist.
 End of G2Drv F.D. properties file   722 does not exist.
 End of G2Drv F.D. properties file   788 does not exist.
 Leave Link 1110 at Tue Feb 16 10:25:32 2021, MaxMem=    33554432 cpu:         0.0
 (Enter /cm/shared/apps/Gaussian09/g09/l1002.exe)
 Minotr:  UHF open shell wavefunction.
          IDoAtm=1111111111111111111111
          Direct CPHF calculation.
          Differentiating once with respect to electric field.
                with respect to dipole field.
          Differentiating once with respect to nuclear coordinates.
          Electric field/nuclear overlap derivatives assumed to be zero.
          Requested convergence is 1.0D-08 RMS, and 1.0D-07 maximum.
          NewPWx=T KeepS1=F KeepF1=F KeepIn=T MapXYZ=F SortEE=F KeepMc=T.
          MDV=      33495213 using IRadAn=       2.
 Keep J ints in memory in canonical form, NReq=888555.
 FoFCou: FMM=F IPFlag=           0 FMFlag=           0 FMFlg1=           0
         NFxFlg=           0 DoJE=F BraDBF=F KetDBF=F FulRan=T
         wScrn=  0.000000 ICntrl=     600 IOpCl=  2 I1Cent=           0 NGrid=           0
         NMat0=    1 NMatS0=    112 NMatT0=    0 NMatD0=    1 NMtDS0=    0 NMtDT0=    0
 Symmetry not used in FoFCou.
          Solving linear equations separately, MaxMat=       0.
          There are    69 degrees of freedom in the 1st order CPHF.  IDoFFX=5 NUNeed=    69.
 LinEq1:  Iter=  0 NonCon=    69 RMS=1.84D-01 Max=1.72D+00 NDo=    69
 AX will form    69 AO Fock derivatives at one time.
 LinEq1:  Iter=  1 NonCon=    69 RMS=2.66D-02 Max=2.04D-01 NDo=    69
 LinEq1:  Iter=  2 NonCon=    69 RMS=4.59D-03 Max=3.70D-02 NDo=    69
 LinEq1:  Iter=  3 NonCon=    69 RMS=9.34D-04 Max=1.65D-02 NDo=    69
 LinEq1:  Iter=  4 NonCon=    69 RMS=2.71D-04 Max=4.34D-03 NDo=    69
 LinEq1:  Iter=  5 NonCon=    69 RMS=6.89D-05 Max=1.06D-03 NDo=    69
 LinEq1:  Iter=  6 NonCon=    69 RMS=1.67D-05 Max=2.99D-04 NDo=    69
 LinEq1:  Iter=  7 NonCon=    64 RMS=3.57D-06 Max=5.77D-05 NDo=    69
 LinEq1:  Iter=  8 NonCon=    27 RMS=6.91D-07 Max=8.33D-06 NDo=    69
 LinEq1:  Iter=  9 NonCon=     3 RMS=1.09D-07 Max=1.19D-06 NDo=    69
 LinEq1:  Iter= 10 NonCon=     2 RMS=1.58D-08 Max=1.37D-07 NDo=    69
 LinEq1:  Iter= 11 NonCon=     0 RMS=2.13D-09 Max=1.71D-08 NDo=    69
 Linear equations converged to 1.000D-08 1.000D-07 after    11 iterations.
 FullF1:  Do perturbations    1 to     3.
 Isotropic polarizability for W=    0.000000       59.23 Bohr**3.
 End of Minotr F.D. properties file   721 does not exist.
 End of Minotr F.D. properties file   722 does not exist.
 End of Minotr F.D. properties file   788 does not exist.
 Leave Link 1002 at Tue Feb 16 10:25:33 2021, MaxMem=    33554432 cpu:         0.4
 (Enter /cm/shared/apps/Gaussian09/g09/l601.exe)
 Copying SCF densities to generalized density rwf, IOpCl= 1 IROHF=0.

 **********************************************************************

            Population analysis using the SCF density.

 **********************************************************************

 Alpha  occ. eigenvalues --   -1.19277  -1.17324  -1.12210  -1.05388  -1.00693
 Alpha  occ. eigenvalues --   -0.95934  -0.83938  -0.79955  -0.75647  -0.71495
 Alpha  occ. eigenvalues --   -0.66521  -0.62266  -0.61171  -0.61003  -0.60129
 Alpha  occ. eigenvalues --   -0.56896  -0.54639  -0.53015  -0.52233  -0.51414
 Alpha  occ. eigenvalues --   -0.50602  -0.49914  -0.48913  -0.46192  -0.45190
 Alpha  occ. eigenvalues --   -0.43701  -0.41759  -0.37529  -0.33014
 Alpha virt. eigenvalues --    0.01175   0.01997   0.02107   0.06290   0.11192
 Alpha virt. eigenvalues --    0.11320   0.13588   0.14816   0.15158   0.16134
 Alpha virt. eigenvalues --    0.17406   0.17492   0.17590   0.17722   0.18229
 Alpha virt. eigenvalues --    0.18584   0.19492   0.20915   0.21178   0.21443
 Alpha virt. eigenvalues --    0.21691   0.23323   0.24985
  Beta  occ. eigenvalues --   -1.19277  -1.17324  -1.12210  -1.05399  -1.00690
  Beta  occ. eigenvalues --   -0.95917  -0.83991  -0.79953  -0.75656  -0.71476
  Beta  occ. eigenvalues --   -0.66517  -0.62262  -0.61166  -0.61001  -0.60171
  Beta  occ. eigenvalues --   -0.56570  -0.54767  -0.53024  -0.52309  -0.51411
  Beta  occ. eigenvalues --   -0.50656  -0.49809  -0.48935  -0.46100  -0.45175
  Beta  occ. eigenvalues --   -0.43757  -0.41759  -0.37509  -0.33086
  Beta virt. eigenvalues --    0.01166   0.01987   0.02159   0.06295   0.11142
  Beta virt. eigenvalues --    0.11324   0.13602   0.14816   0.14978   0.16115
  Beta virt. eigenvalues --    0.17422   0.17494   0.17594   0.17704   0.18225
  Beta virt. eigenvalues --    0.18588   0.19612   0.20992   0.21170   0.21440
  Beta virt. eigenvalues --    0.21736   0.23295   0.25002
          Condensed to atoms (all electrons):
               1          2          3          4          5          6
     1  C    4.200237   0.000000   0.000000   0.000000   0.000000   0.000000
     2  C    0.000000   4.250708   0.000000   0.000000   0.000000   0.000000
     3  C    0.000000   0.000000   4.274813   0.000000   0.000000   0.000000
     4  C    0.000000   0.000000   0.000000   3.318353   0.000000   0.000000
     5  C    0.000000   0.000000   0.000000   0.000000   3.593750   0.000000
     6  C    0.000000   0.000000   0.000000   0.000000   0.000000   4.444897
     7  H    0.000000   0.000000   0.000000   0.000000   0.000000   0.000000
     8  H    0.000000   0.000000   0.000000   0.000000   0.000000   0.000000
     9  H    0.000000   0.000000   0.000000   0.000000   0.000000   0.000000
    10  H    0.000000   0.000000   0.000000   0.000000   0.000000   0.000000
    11  H    0.000000   0.000000   0.000000   0.000000   0.000000   0.000000
    12  H    0.000000   0.000000   0.000000   0.000000   0.000000   0.000000
    13  C    0.000000   0.000000   0.000000   0.000000   0.000000   0.000000
    14  H    0.000000   0.000000   0.000000   0.000000   0.000000   0.000000
    15  H    0.000000   0.000000   0.000000   0.000000   0.000000   0.000000
    16  H    0.000000   0.000000   0.000000   0.000000   0.000000   0.000000
    17  H    0.000000   0.000000   0.000000   0.000000   0.000000   0.000000
    18  H    0.000000   0.000000   0.000000   0.000000   0.000000   0.000000
    19  H    0.000000   0.000000   0.000000   0.000000   0.000000   0.000000
    20  O    0.000000   0.000000   0.000000   0.000000   0.000000   0.000000
    21  O    0.000000   0.000000   0.000000   0.000000   0.000000   0.000000
    22  O    0.000000   0.000000   0.000000   0.000000   0.000000   0.000000
               7          8          9         10         11         12
     1  C    0.000000   0.000000   0.000000   0.000000   0.000000   0.000000
     2  C    0.000000   0.000000   0.000000   0.000000   0.000000   0.000000
     3  C    0.000000   0.000000   0.000000   0.000000   0.000000   0.000000
     4  C    0.000000   0.000000   0.000000   0.000000   0.000000   0.000000
     5  C    0.000000   0.000000   0.000000   0.000000   0.000000   0.000000
     6  C    0.000000   0.000000   0.000000   0.000000   0.000000   0.000000
     7  H    0.856880   0.000000   0.000000   0.000000   0.000000   0.000000
     8  H    0.000000   0.847540   0.000000   0.000000   0.000000   0.000000
     9  H    0.000000   0.000000   0.828096   0.000000   0.000000   0.000000
    10  H    0.000000   0.000000   0.000000   0.838616   0.000000   0.000000
    11  H    0.000000   0.000000   0.000000   0.000000   0.837390   0.000000
    12  H    0.000000   0.000000   0.000000   0.000000   0.000000   0.656967
    13  C    0.000000   0.000000   0.000000   0.000000   0.000000   0.000000
    14  H    0.000000   0.000000   0.000000   0.000000   0.000000   0.000000
    15  H    0.000000   0.000000   0.000000   0.000000   0.000000   0.000000
    16  H    0.000000   0.000000   0.000000   0.000000   0.000000   0.000000
    17  H    0.000000   0.000000   0.000000   0.000000   0.000000   0.000000
    18  H    0.000000   0.000000   0.000000   0.000000   0.000000   0.000000
    19  H    0.000000   0.000000   0.000000   0.000000   0.000000   0.000000
    20  O    0.000000   0.000000   0.000000   0.000000   0.000000   0.000000
    21  O    0.000000   0.000000   0.000000   0.000000   0.000000   0.000000
    22  O    0.000000   0.000000   0.000000   0.000000   0.000000   0.000000
              13         14         15         16         17         18
     1  C    0.000000   0.000000   0.000000   0.000000   0.000000   0.000000
     2  C    0.000000   0.000000   0.000000   0.000000   0.000000   0.000000
     3  C    0.000000   0.000000   0.000000   0.000000   0.000000   0.000000
     4  C    0.000000   0.000000   0.000000   0.000000   0.000000   0.000000
     5  C    0.000000   0.000000   0.000000   0.000000   0.000000   0.000000
     6  C    0.000000   0.000000   0.000000   0.000000   0.000000   0.000000
     7  H    0.000000   0.000000   0.000000   0.000000   0.000000   0.000000
     8  H    0.000000   0.000000   0.000000   0.000000   0.000000   0.000000
     9  H    0.000000   0.000000   0.000000   0.000000   0.000000   0.000000
    10  H    0.000000   0.000000   0.000000   0.000000   0.000000   0.000000
    11  H    0.000000   0.000000   0.000000   0.000000   0.000000   0.000000
    12  H    0.000000   0.000000   0.000000   0.000000   0.000000   0.000000
    13  C    4.591660   0.000000   0.000000   0.000000   0.000000   0.000000
    14  H    0.000000   0.911780   0.000000   0.000000   0.000000   0.000000
    15  H    0.000000   0.000000   0.825054   0.000000   0.000000   0.000000
    16  H    0.000000   0.000000   0.000000   0.826730   0.000000   0.000000
    17  H    0.000000   0.000000   0.000000   0.000000   0.785372   0.000000
    18  H    0.000000   0.000000   0.000000   0.000000   0.000000   0.794956
    19  H    0.000000   0.000000   0.000000   0.000000   0.000000   0.000000
    20  O    0.000000   0.000000   0.000000   0.000000   0.000000   0.000000
    21  O    0.000000   0.000000   0.000000   0.000000   0.000000   0.000000
    22  O    0.000000   0.000000   0.000000   0.000000   0.000000   0.000000
              19         20         21         22
     1  C    0.000000   0.000000   0.000000   0.000000
     2  C    0.000000   0.000000   0.000000   0.000000
     3  C    0.000000   0.000000   0.000000   0.000000
     4  C    0.000000   0.000000   0.000000   0.000000
     5  C    0.000000   0.000000   0.000000   0.000000
     6  C    0.000000   0.000000   0.000000   0.000000
     7  H    0.000000   0.000000   0.000000   0.000000
     8  H    0.000000   0.000000   0.000000   0.000000
     9  H    0.000000   0.000000   0.000000   0.000000
    10  H    0.000000   0.000000   0.000000   0.000000
    11  H    0.000000   0.000000   0.000000   0.000000
    12  H    0.000000   0.000000   0.000000   0.000000
    13  C    0.000000   0.000000   0.000000   0.000000
    14  H    0.000000   0.000000   0.000000   0.000000
    15  H    0.000000   0.000000   0.000000   0.000000
    16  H    0.000000   0.000000   0.000000   0.000000
    17  H    0.000000   0.000000   0.000000   0.000000
    18  H    0.000000   0.000000   0.000000   0.000000
    19  H    0.795665   0.000000   0.000000   0.000000
    20  O    0.000000   6.462569   0.000000   0.000000
    21  O    0.000000   0.000000   6.548177   0.000000
    22  O    0.000000   0.000000   0.000000   6.509790
          Atomic-Atomic Spin Densities.
               1          2          3          4          5          6
     1  C   -0.021938   0.000000   0.000000   0.000000   0.000000   0.000000
     2  C    0.000000   0.006027   0.000000   0.000000   0.000000   0.000000
     3  C    0.000000   0.000000  -0.006913   0.000000   0.000000   0.000000
     4  C    0.000000   0.000000   0.000000  -0.000016   0.000000   0.000000
     5  C    0.000000   0.000000   0.000000   0.000000  -0.000567   0.000000
     6  C    0.000000   0.000000   0.000000   0.000000   0.000000   0.001683
     7  H    0.000000   0.000000   0.000000   0.000000   0.000000   0.000000
     8  H    0.000000   0.000000   0.000000   0.000000   0.000000   0.000000
     9  H    0.000000   0.000000   0.000000   0.000000   0.000000   0.000000
    10  H    0.000000   0.000000   0.000000   0.000000   0.000000   0.000000
    11  H    0.000000   0.000000   0.000000   0.000000   0.000000   0.000000
    12  H    0.000000   0.000000   0.000000   0.000000   0.000000   0.000000
    13  C    0.000000   0.000000   0.000000   0.000000   0.000000   0.000000
    14  H    0.000000   0.000000   0.000000   0.000000   0.000000   0.000000
    15  H    0.000000   0.000000   0.000000   0.000000   0.000000   0.000000
    16  H    0.000000   0.000000   0.000000   0.000000   0.000000   0.000000
    17  H    0.000000   0.000000   0.000000   0.000000   0.000000   0.000000
    18  H    0.000000   0.000000   0.000000   0.000000   0.000000   0.000000
    19  H    0.000000   0.000000   0.000000   0.000000   0.000000   0.000000
    20  O    0.000000   0.000000   0.000000   0.000000   0.000000   0.000000
    21  O    0.000000   0.000000   0.000000   0.000000   0.000000   0.000000
    22  O    0.000000   0.000000   0.000000   0.000000   0.000000   0.000000
               7          8          9         10         11         12
     1  C    0.000000   0.000000   0.000000   0.000000   0.000000   0.000000
     2  C    0.000000   0.000000   0.000000   0.000000   0.000000   0.000000
     3  C    0.000000   0.000000   0.000000   0.000000   0.000000   0.000000
     4  C    0.000000   0.000000   0.000000   0.000000   0.000000   0.000000
     5  C    0.000000   0.000000   0.000000   0.000000   0.000000   0.000000
     6  C    0.000000   0.000000   0.000000   0.000000   0.000000   0.000000
     7  H   -0.000287   0.000000   0.000000   0.000000   0.000000   0.000000
     8  H    0.000000   0.001226   0.000000   0.000000   0.000000   0.000000
     9  H    0.000000   0.000000   0.040760   0.000000   0.000000   0.000000
    10  H    0.000000   0.000000   0.000000  -0.021602   0.000000   0.000000
    11  H    0.000000   0.000000   0.000000   0.000000   0.001333   0.000000
    12  H    0.000000   0.000000   0.000000   0.000000   0.000000   0.000028
    13  C    0.000000   0.000000   0.000000   0.000000   0.000000   0.000000
    14  H    0.000000   0.000000   0.000000   0.000000   0.000000   0.000000
    15  H    0.000000   0.000000   0.000000   0.000000   0.000000   0.000000
    16  H    0.000000   0.000000   0.000000   0.000000   0.000000   0.000000
    17  H    0.000000   0.000000   0.000000   0.000000   0.000000   0.000000
    18  H    0.000000   0.000000   0.000000   0.000000   0.000000   0.000000
    19  H    0.000000   0.000000   0.000000   0.000000   0.000000   0.000000
    20  O    0.000000   0.000000   0.000000   0.000000   0.000000   0.000000
    21  O    0.000000   0.000000   0.000000   0.000000   0.000000   0.000000
    22  O    0.000000   0.000000   0.000000   0.000000   0.000000   0.000000
              13         14         15         16         17         18
     1  C    0.000000   0.000000   0.000000   0.000000   0.000000   0.000000
     2  C    0.000000   0.000000   0.000000   0.000000   0.000000   0.000000
     3  C    0.000000   0.000000   0.000000   0.000000   0.000000   0.000000
     4  C    0.000000   0.000000   0.000000   0.000000   0.000000   0.000000
     5  C    0.000000   0.000000   0.000000   0.000000   0.000000   0.000000
     6  C    0.000000   0.000000   0.000000   0.000000   0.000000   0.000000
     7  H    0.000000   0.000000   0.000000   0.000000   0.000000   0.000000
     8  H    0.000000   0.000000   0.000000   0.000000   0.000000   0.000000
     9  H    0.000000   0.000000   0.000000   0.000000   0.000000   0.000000
    10  H    0.000000   0.000000   0.000000   0.000000   0.000000   0.000000
    11  H    0.000000   0.000000   0.000000   0.000000   0.000000   0.000000
    12  H    0.000000   0.000000   0.000000   0.000000   0.000000   0.000000
    13  C    0.000997   0.000000   0.000000   0.000000   0.000000   0.000000
    14  H    0.000000   0.000006   0.000000   0.000000   0.000000   0.000000
    15  H    0.000000   0.000000  -0.000308   0.000000   0.000000   0.000000
    16  H    0.000000   0.000000   0.000000  -0.000110   0.000000   0.000000
    17  H    0.000000   0.000000   0.000000   0.000000  -0.000387   0.000000
    18  H    0.000000   0.000000   0.000000   0.000000   0.000000  -0.000038
    19  H    0.000000   0.000000   0.000000   0.000000   0.000000   0.000000
    20  O    0.000000   0.000000   0.000000   0.000000   0.000000   0.000000
    21  O    0.000000   0.000000   0.000000   0.000000   0.000000   0.000000
    22  O    0.000000   0.000000   0.000000   0.000000   0.000000   0.000000
              19         20         21         22
     1  C    0.000000   0.000000   0.000000   0.000000
     2  C    0.000000   0.000000   0.000000   0.000000
     3  C    0.000000   0.000000   0.000000   0.000000
     4  C    0.000000   0.000000   0.000000   0.000000
     5  C    0.000000   0.000000   0.000000   0.000000
     6  C    0.000000   0.000000   0.000000   0.000000
     7  H    0.000000   0.000000   0.000000   0.000000
     8  H    0.000000   0.000000   0.000000   0.000000
     9  H    0.000000   0.000000   0.000000   0.000000
    10  H    0.000000   0.000000   0.000000   0.000000
    11  H    0.000000   0.000000   0.000000   0.000000
    12  H    0.000000   0.000000   0.000000   0.000000
    13  C    0.000000   0.000000   0.000000   0.000000
    14  H    0.000000   0.000000   0.000000   0.000000
    15  H    0.000000   0.000000   0.000000   0.000000
    16  H    0.000000   0.000000   0.000000   0.000000
    17  H    0.000000   0.000000   0.000000   0.000000
    18  H    0.000000   0.000000   0.000000   0.000000
    19  H   -0.000035   0.000000   0.000000   0.000000
    20  O    0.000000   0.000099   0.000000   0.000000
    21  O    0.000000   0.000000  -0.000022   0.000000
    22  O    0.000000   0.000000   0.000000   0.000062
 Mulliken charges and spin densities:
               1          2
     1  C   -0.200237  -0.021938
     2  C   -0.250708   0.006027
     3  C   -0.274813  -0.006913
     4  C    0.681647  -0.000016
     5  C    0.406250  -0.000567
     6  C   -0.444897   0.001683
     7  H    0.143120  -0.000287
     8  H    0.152460   0.001226
     9  H    0.171904   0.040760
    10  H    0.161384  -0.021602
    11  H    0.162610   0.001333
    12  H    0.343033   0.000028
    13  C   -0.591660   0.000997
    14  H    0.088220   0.000006
    15  H    0.174946  -0.000308
    16  H    0.173270  -0.000110
    17  H    0.214628  -0.000387
    18  H    0.205044  -0.000038
    19  H    0.204335  -0.000035
    20  O   -0.462569   0.000099
    21  O   -0.548177  -0.000022
    22  O   -0.509790   0.000062
 Sum of Mulliken charges =   0.00000   0.00000
 Mulliken charges and spin densities with hydrogens summed into heavy atoms:
               1          2
     1  C    0.095342  -0.020999
     2  C    0.082579   0.025185
     3  C   -0.112203  -0.005580
     4  C    0.681647  -0.000016
     5  C    0.494470  -0.000561
     6  C   -0.096681   0.001265
    13  C    0.032347   0.000538
    20  O   -0.462569   0.000099
    21  O   -0.205144   0.000007
    22  O   -0.509790   0.000062
 APT charges:
               1
     1  C   -0.126448
     2  C   -0.357614
     3  C   -0.317578
     4  C    1.595074
     5  C    0.881546
     6  C   -0.682375
     7  H    0.131300
     8  H    0.144908
     9  H    0.180800
    10  H    0.163823
    11  H    0.272602
    12  H    0.344093
    13  C   -0.908475
    14  H    0.006159
    15  H    0.191089
    16  H    0.189425
    17  H    0.271994
    18  H    0.252939
    19  H    0.248569
    20  O   -0.685144
    21  O   -0.920954
    22  O   -0.875156
 Sum of APT charges =   0.00058
 APT charges with hydrogens summed into heavy atoms:
               1
     1  C    0.149760
     2  C   -0.012992
     3  C   -0.044976
     4  C    1.595074
     5  C    0.887704
     6  C   -0.301861
    13  C   -0.134972
    20  O   -0.685144
    21  O   -0.576861
    22  O   -0.875156
 Charge=              0.0000 electrons
 Dipole moment (field-independent basis, Debye):
    X=             -1.0244    Y=             -3.8589    Z=              1.9687  Tot=              4.4515
 N-N= 3.188872677807D+02 E-N=-5.650551547892D+02  KE=-3.417042249695D+01
  Exact polarizability:  41.991   5.486  72.797  -8.111  -3.747  62.903
 Approx polarizability:  27.819   6.903  52.424  -4.061  -5.289  42.955
 Leave Link  601 at Tue Feb 16 10:25:33 2021, MaxMem=    33554432 cpu:         0.0
 (Enter /cm/shared/apps/Gaussian09/g09/l701.exe)
 Compute integral second derivatives.
 ... and contract with generalized density number  0.
 Leave Link  701 at Tue Feb 16 10:25:33 2021, MaxMem=    33554432 cpu:         0.1
 (Enter /cm/shared/apps/Gaussian09/g09/l702.exe)
 L702 exits ... SP integral derivatives will be done elsewhere.
 Leave Link  702 at Tue Feb 16 10:25:33 2021, MaxMem=    33554432 cpu:         0.0
 (Enter /cm/shared/apps/Gaussian09/g09/l703.exe)
 Compute integral second derivatives, UseDBF=F ICtDFT=           0.
 Integral derivatives from FoFJK, PRISM(SPDF).
 Calling FoFJK, ICntrl=    100127 FMM=F ISym2X=0 I1Cent= 0 IOpClX= 1 NMat=1 NMatS=1 NMatT=0.
 FoFJK:  IHMeth=40 ICntrl=  100127 DoSepK=F KAlg= 0 I1Cent=   0 FoldK=F
 IRaf=         0 NMat=   1 IRICut=       1 DoRegI=T DoRafI=F ISym2E= 0.
 FoFCou: FMM=F IPFlag=           0 FMFlag=      100000 FMFlg1=         800
         NFxFlg=           0 DoJE=F BraDBF=F KetDBF=F FulRan=T
         wScrn=  0.000000 ICntrl=  100127 IOpCl=  1 I1Cent=           0 NGrid=           0
         NMat0=    1 NMatS0=      1 NMatT0=    0 NMatD0=    1 NMtDS0=    0 NMtDT0=    0
 Symmetry not used in FoFCou.
 Leave Link  703 at Tue Feb 16 10:25:33 2021, MaxMem=    33554432 cpu:         0.0
 (Enter /cm/shared/apps/Gaussian09/g09/l716.exe)
 Dipole        =-4.03021733D-01-1.51819899D+00 7.74553625D-01
 Polarizability= 4.19912000D+01 5.48567970D+00 7.27969500D+01
                -8.11130516D+00-3.74743052D+00 6.29030924D+01
 HyperPolar    =-2.62284678D+01-2.40183430D+01-3.28358118D+01
                -4.02177438D+01 1.63111646D+01 1.45921499D-02
                 3.71213418D+01-2.56164873D+01-4.88688322D+01
                -4.21003131D+01
 -------------------------------------------------------------------
 Center     Atomic                   Forces (Hartrees/Bohr)
 Number     Number              X              Y              Z
 -------------------------------------------------------------------
      1        6          -0.000000478   -0.000000622   -0.000000499
      2        6           0.000001323   -0.000001973    0.000001152
      3        6          -0.000001613    0.000001662   -0.000001399
      4        6          -0.000000491   -0.000001404    0.000002608
      5        6           0.000000217    0.000000665   -0.000000216
      6        6           0.000000159    0.000000385    0.000000378
      7        1          -0.000000072   -0.000000124   -0.000000002
      8        1          -0.000000085    0.000000177    0.000000021
      9        1          -0.000000268    0.000000163   -0.000000116
     10        1           0.000000188    0.000001059    0.000000057
     11        1           0.000000694   -0.000000917    0.000001027
     12        1           0.000000020   -0.000000250   -0.000000015
     13        6           0.000000135    0.000000474   -0.000000031
     14        1           0.000000146    0.000000025   -0.000000129
     15        1          -0.000000148   -0.000000061   -0.000000193
     16        1          -0.000000081    0.000000067   -0.000000215
     17        1           0.000000044    0.000000135   -0.000000288
     18        1          -0.000000155    0.000000147    0.000000047
     19        1           0.000000063    0.000000138    0.000000067
     20        8          -0.000000202   -0.000000852    0.000000340
     21        8           0.000000155    0.000000115   -0.000001618
     22        8           0.000000448    0.000000990   -0.000000976
 -------------------------------------------------------------------
 Cartesian Forces:  Max     0.000002608 RMS     0.000000729
 Leave Link  716 at Tue Feb 16 10:25:33 2021, MaxMem=    33554432 cpu:         0.0
 (Enter /cm/shared/apps/Gaussian09/g09/l103.exe)

 GradGradGradGradGradGradGradGradGradGradGradGradGradGradGradGradGradGrad
 Berny optimization.
 Search for a saddle point.
 Step number   1 out of a maximum of  100
 All quantities printed in internal units (Hartrees-Bohrs-Radians)
 Swapping is turned off.
 Second derivative matrix not updated -- analytic derivatives used.
 ITU=  0
     Eigenvalues ---   -0.00018   0.00003   0.00010   0.00013   0.00016
     Eigenvalues ---    0.00030   0.00063   0.00077   0.00106   0.00131
     Eigenvalues ---    0.00295   0.00622   0.00752   0.01872   0.01948
     Eigenvalues ---    0.01988   0.02778   0.03573   0.03982   0.04279
     Eigenvalues ---    0.04778   0.04851   0.05541   0.05744   0.05907
     Eigenvalues ---    0.06066   0.06199   0.07102   0.07669   0.07745
     Eigenvalues ---    0.08187   0.09392   0.12073   0.12601   0.12708
     Eigenvalues ---    0.15838   0.16840   0.19934   0.23310   0.23406
     Eigenvalues ---    0.24351   0.32665   0.36417   0.41180   0.42869
     Eigenvalues ---    0.48366   0.50968   0.52831   0.54788   0.57070
     Eigenvalues ---    0.59784   0.60713   0.63373   0.64412   0.66194
     Eigenvalues ---    0.70838   0.75957   1.06141   1.66554   1.70034
 Eigenvectors required to have negative eigenvalues:
                          X12       Y9        X21       Z9        Y12
   1                    0.30616   0.29438   0.28539  -0.23466  -0.22615
                          Y21       Z10       Z14       Y2        Y10
   1                   -0.21201  -0.19862   0.19811   0.19122   0.19068
 RFO step:  Lambda0=1.884516509D-11 Lambda= 0.00000000D+00.
 Linear search not attempted -- option 19 set.
 TrRot=  0.000060 -0.000003  0.000016 -0.000005 -0.000015 -0.000005
 Variable       Old X    -DE/DX   Delta X   Delta X   Delta X     New X
                                 (Linear)    (Quad)   (Total)
    X1       -0.27912   0.00000   0.00000  -0.00009  -0.00006  -0.27918
    Y1        0.38940   0.00000   0.00000  -0.00001  -0.00001   0.38939
    Z1        2.24924   0.00000   0.00000  -0.00026  -0.00025   2.24900
    X2        1.04316   0.00000   0.00000   0.00024   0.00025   1.04342
    Y2       -2.12623   0.00000   0.00000   0.00008   0.00006  -2.12617
    Z2        1.60393   0.00000   0.00000   0.00006   0.00010   1.60403
    X3       -0.49403   0.00000   0.00000   0.00040   0.00042  -0.49362
    Y3       -3.87513   0.00000   0.00000  -0.00033  -0.00033  -3.87545
    Z3        0.30751   0.00000   0.00000   0.00043   0.00044   0.30795
    X4        2.35823   0.00000   0.00000   0.00017   0.00032   2.35855
    Y4        1.64124   0.00000   0.00000   0.00008   0.00005   1.64129
    Z4       -5.14532   0.00000   0.00000   0.00008   0.00013  -5.14519
    X5       -3.64910   0.00000   0.00000  -0.00009  -0.00008  -3.64919
    Y5        2.54487   0.00000   0.00000  -0.00009  -0.00005   2.54482
    Z5        4.85112   0.00000   0.00000  -0.00019  -0.00023   4.85089
    X6       -2.47364   0.00000   0.00000  -0.00008  -0.00008  -2.47372
    Y6        0.05435   0.00000   0.00000  -0.00006  -0.00004   0.05431
    Z6        4.10103   0.00000   0.00000  -0.00025  -0.00028   4.10075
    X7        1.12148   0.00000   0.00000  -0.00027  -0.00024   1.12125
    Y7        1.72718   0.00000   0.00000   0.00026   0.00024   1.72742
    Z7        3.04913   0.00000   0.00000  -0.00039  -0.00035   3.04878
    X8       -0.95633   0.00000   0.00000  -0.00016  -0.00010  -0.95642
    Y8        1.29903   0.00000   0.00000  -0.00030  -0.00029   1.29874
    Z8        0.48314   0.00000   0.00000  -0.00037  -0.00037   0.48276
    X9        2.75637   0.00000   0.00000   0.00010   0.00014   2.75651
    Y9       -1.68493   0.00000   0.00000   0.00015   0.00012  -1.68481
    Z9        0.42860   0.00000   0.00000  -0.00010  -0.00004   0.42856
   X10        1.81972   0.00000   0.00000   0.00046   0.00044   1.82016
   Y10       -3.01467   0.00000   0.00000   0.00048   0.00046  -3.01421
   Z10        3.35741   0.00000   0.00000   0.00017   0.00021   3.35762
   X11       -2.08489   0.00000   0.00000   0.00067   0.00069  -2.08420
   Y11       -4.68417   0.00000   0.00000  -0.00112  -0.00110  -4.68527
   Z11       -0.42248   0.00000   0.00000   0.00076   0.00075  -0.42173
   X12        2.52416   0.00000   0.00000   0.00054   0.00067   2.52483
   Y12        3.97970   0.00000   0.00000   0.00012   0.00009   3.97979
   Z12       -2.20166   0.00000   0.00000   0.00003   0.00008  -2.20157
   X13        1.88870   0.00000   0.00000  -0.00077  -0.00064   1.88806
   Y13       -1.08466   0.00000   0.00000   0.00024   0.00022  -1.08444
   Z13       -5.59940   0.00000   0.00000   0.00010   0.00014  -5.59925
   X14       -5.34101   0.00000   0.00000  -0.00027  -0.00028  -5.34129
   Y14        2.38876   0.00000   0.00000  -0.00013  -0.00008   2.38868
   Z14        6.05908   0.00000   0.00000  -0.00045  -0.00052   6.05856
   X15       -3.93422   0.00000   0.00000  -0.00006  -0.00006  -3.93429
   Y15       -1.19717   0.00000   0.00000  -0.00007  -0.00004  -1.19720
   Z15        3.26380   0.00000   0.00000  -0.00026  -0.00031   3.26349
   X16       -1.82470   0.00000   0.00000  -0.00006  -0.00010  -1.82480
   Y16       -0.94910   0.00000   0.00000  -0.00007  -0.00006  -0.94915
   Z16        5.82527   0.00000   0.00000  -0.00027  -0.00028   5.82499
   X17        1.13927   0.00000   0.00000  -0.00094  -0.00084   1.13843
   Y17       -2.06078   0.00000   0.00000   0.00047   0.00045  -2.06033
   Z17       -3.91198   0.00000   0.00000   0.00016   0.00019  -3.91179
   X18        3.64435   0.00000   0.00000  -0.00115  -0.00102   3.64333
   Y18       -2.06126   0.00000   0.00000  -0.00033  -0.00037  -2.06163
   Z18       -6.14989   0.00000   0.00000  -0.00009  -0.00002  -6.14991
   X19        0.52908   0.00000   0.00000  -0.00101  -0.00086   0.52822
   Y19       -1.35771   0.00000   0.00000   0.00071   0.00070  -1.35701
   Z19       -7.15294   0.00000   0.00000   0.00023   0.00025  -7.15269
   X20       -2.82911   0.00000   0.00000   0.00009   0.00013  -2.82898
   Y20        4.58076   0.00000   0.00000  -0.00006  -0.00003   4.58073
   Z20        4.20836   0.00000   0.00000   0.00013   0.00010   4.20846
   X21        2.24014   0.00000   0.00000  -0.00004   0.00008   2.24022
   Y21        2.16098   0.00000   0.00000   0.00020   0.00018   2.16115
   Z21       -2.58975   0.00000   0.00000   0.00004   0.00009  -2.58966
   X22        2.80149   0.00000   0.00000   0.00103   0.00122   2.80271
   Y22        3.32953   0.00000   0.00000  -0.00013  -0.00017   3.32936
   Z22       -6.61421   0.00000   0.00000   0.00009   0.00015  -6.61406
         Item               Value     Threshold  Converged?
 Maximum Force            0.000003     0.000450     YES
 RMS     Force            0.000001     0.000300     YES
 Maximum Displacement     0.001222     0.001800     YES
 RMS     Displacement     0.000401     0.001200     YES
 Predicted change in Energy=-9.296818D-10
 Optimization completed.
    -- Stationary point found.
 Lowest energy point so far.  Saving SCF results.
 GradGradGradGradGradGradGradGradGradGradGradGradGradGradGradGradGradGrad

 Largest change from initial coordinates is atom    0       0.000 Angstoms.
 Leave Link  103 at Tue Feb 16 10:25:33 2021, MaxMem=    33554432 cpu:         0.0
 (Enter /cm/shared/apps/Gaussian09/g09/l202.exe)
                          Input orientation:                          
 ---------------------------------------------------------------------
 Center     Atomic      Atomic             Coordinates (Angstroms)
 Number     Number       Type             X           Y           Z
 ---------------------------------------------------------------------
      1          6           0       -0.147705    0.206061    1.190248
      2          6           0        0.552019   -1.125153    0.848763
      3          6           0       -0.261431   -2.050630    0.162727
      4          6           0        1.247922    0.868505   -2.722788
      5          6           0       -1.931023    1.346688    2.567102
      6          6           0       -1.308995    0.028762    2.170170
      7          1           0        0.593464    0.913985    1.613529
      8          1           0       -0.506066    0.687417    0.255665
      9          1           0        1.458610   -0.891625    0.226807
     10          1           0        0.962955   -1.595293    1.776664
     11          1           0       -1.103275   -2.478756   -0.223565
     12          1           0        1.335726    2.105967   -1.165068
     13          6           0        0.999458   -0.573977   -2.963073
     14          1           0       -2.826340    1.264079    3.206327
     15          1           0       -2.081902   -0.633513    1.727128
     16          1           0       -0.965589   -0.502241    3.082598
     17          1           0        0.602877   -1.090519   -2.070129
     18          1           0        1.928505   -1.090770   -3.254380
     19          1           0        0.279976   -0.718471   -3.785172
     20          8           0       -1.497101    2.424035    2.226968
     21          8           0        1.185432    1.143539   -1.370435
     22          8           0        1.482483    1.761910   -3.500088
 ---------------------------------------------------------------------
                    Distance matrix (angstroms):
                    1          2          3          4          5
     1  C    0.000000
     2  C    1.542192   0.000000
     3  C    2.482214   1.410267   0.000000
     4  C    4.206953   4.149088   4.373293   0.000000
     5  C    2.525268   3.902331   4.484454   6.190096   0.000000
     6  C    1.529796   2.557540   3.074262   5.584266   1.510431
     7  H    1.108898   2.178226   3.409489   4.385662   2.733051
     8  H    1.110663   2.180990   2.750525   3.461279   2.794259
     9  H    2.171032   1.123954   2.075076   3.441302   4.687925
    10  H    2.195979   1.118437   2.076354   5.137760   4.201804
    11  H    3.181230   2.392097   1.020399   4.793579   4.806975
    12  H    3.370122   3.887139   4.646638   1.991360   5.017693
    13  C    4.378872   3.877382   3.679806   1.483316   6.546717
    14  H    3.515546   4.762336   5.179725   7.204894   1.103189
    15  H    2.175831   2.819712   2.787416   5.757216   2.156274
    16  H    2.179820   2.771493   3.379200   6.362475   2.148566
    17  H    3.588112   2.919540   2.579629   2.163290   5.819325
    18  H    5.074164   4.328011   4.170584   2.141154   7.397757
    19  H    5.078629   4.659694   4.201628   2.141045   7.035964
    20  O    2.795544   4.323780   5.080413   5.869830   1.210230
    21  O    3.035328   3.236204   3.827103   1.381451   5.025710
    22  O    5.203598   5.302207   5.567128   1.207223   6.973896
                    6          7          8          9         10
     6  C    0.000000
     7  H    2.170903   0.000000
     8  H    2.178038   1.761844   0.000000
     9  H    3.504770   2.435509   2.520746   0.000000
    10  H    2.820312   2.541577   3.111627   1.772817   0.000000
    11  H    3.472742   4.214799   3.257449   3.047142   3.008443
    12  H    4.736364   3.113258   2.724512   3.307261   4.742581
    13  C    5.660604   4.829508   3.770675   3.238372   4.848662
    14  H    2.214038   3.788751   3.797712   5.646715   4.957691
    15  H    1.110081   3.092772   2.528501   3.853934   3.193529
    16  H    1.110143   2.567977   3.101290   3.766152   2.572841
    17  H    4.784159   4.193741   3.130516   2.459218   3.896443
    18  H    6.415645   5.431198   4.627040   3.518398   5.147644
    19  H    6.208807   5.648819   4.350028   4.185109   5.671798
    20  O    2.403319   2.650853   2.807851   4.871393   4.733883
    21  O    4.472223   3.050764   2.390275   2.601480   4.177910
    22  O    6.553471   5.259126   4.383440   4.575103   6.275734
                   11         12         13         14         15
    11  H    0.000000
    12  H    5.277768   0.000000
    13  C    3.943929   3.244688   0.000000
    14  H    5.361150   6.094314   7.488436   0.000000
    15  H    2.857943   5.248784   5.612157   2.518546   0.000000
    16  H    3.854385   5.490124   6.357412   2.568577   1.760876
    17  H    2.871925   3.402018   1.105188   6.718977   4.672906
    18  H    4.506000   3.864678   1.102299   8.360299   6.411542
    19  H    4.206784   3.994622   1.101989   7.903212   5.997594
    20  O    5.495232   4.430800   6.492874   2.017800   3.152845
    21  O    4.435596   0.995506   2.349669   6.087331   4.840277
    22  O    5.950210   2.364790   2.445008   7.986851   6.765107
                   16         17         18         19         20
    16  H    0.000000
    17  H    5.418187   0.000000
    18  H    6.991383   1.777566   0.000000
    19  H    6.983155   1.784393   1.771439   0.000000
    20  O    3.094786   5.935237   7.357568   7.012786   0.000000
    21  O    5.212004   2.412459   3.015550   3.180863   4.666579
    22  O    7.379105   3.309810   2.897773   2.771207   6.489646
                   21         22
    21  O    0.000000
    22  O    2.237419   0.000000
 Symmetry turned off by external request.
 Stoichiometry    C7H12O3
 Framework group  C1[X(C7H12O3)]
 Deg. of freedom    60
 Full point group                 C1      NOp   1
 Rotational constants (GHZ):      1.7254587      0.5420874      0.4372862
 Leave Link  202 at Tue Feb 16 10:25:33 2021, MaxMem=    33554432 cpu:         0.0
 (Enter /cm/shared/apps/Gaussian09/g09/l716.exe)
 Dipole        =-4.03021733D-01-1.51819899D+00 7.74553625D-01
 Polarizability= 4.19912000D+01 5.48567970D+00 7.27969500D+01
                -8.11130516D+00-3.74743052D+00 6.29030924D+01
 HyperPolar    =-2.62284678D+01-2.40183430D+01-3.28358118D+01
                -4.02177438D+01 1.63111646D+01 1.45921499D-02
                 3.71213418D+01-2.56164873D+01-4.88688322D+01
                -4.21003131D+01
 Full mass-weighted force constant matrix:
 Low frequencies ---  -31.4900  -12.0138   -9.1219   -4.9612    3.9188    5.3768
 Low frequencies ---   11.2774   16.1797   19.3714
 ******    1 imaginary frequencies (negative Signs) ****** 
 Diagonal vibrational polarizability:
      378.6213777      69.1417653     341.0556911
 Harmonic frequencies (cm**-1), IR intensities (KM/Mole), Raman scattering
 activities (A**4/AMU), depolarization ratios for plane and unpolarized
 incident light, reduced masses (AMU), force constants (mDyne/A),
 and normal coordinates:
                      1                      2                      3
                      A                      A                      A
 Frequencies --    -30.2498                15.7872                17.6839
 Red. masses --      4.5546                 4.7612                 4.0995
 Frc consts  --      0.0025                 0.0007                 0.0008
 IR Inten    --      2.0944                 0.0675                 1.6464
  Atom  AN      X      Y      Z        X      Y      Z        X      Y      Z
     1   6     0.07  -0.12   0.03     0.04  -0.03  -0.02    -0.02  -0.02  -0.02
     2   6     0.01  -0.19   0.16     0.04  -0.04   0.04    -0.06  -0.05  -0.01
     3   6     0.02  -0.13   0.06     0.05  -0.06   0.05    -0.08   0.00  -0.06
     4   6    -0.05   0.08   0.02    -0.05   0.03   0.07    -0.01   0.00   0.02
     5   6     0.04   0.05  -0.15    -0.02   0.03  -0.14     0.03   0.05  -0.02
     6   6    -0.03   0.00  -0.07     0.00   0.01  -0.06    -0.05   0.02  -0.04
     7   1     0.08  -0.16   0.08     0.03  -0.02  -0.01     0.00  -0.05   0.00
     8   1     0.20  -0.13  -0.02     0.09  -0.04  -0.04     0.02   0.00  -0.02
     9   1     0.12  -0.30   0.29     0.06  -0.07   0.06    -0.03  -0.08   0.02
    10   1    -0.17  -0.21   0.23     0.02  -0.01   0.07    -0.12  -0.08   0.00
    11   1     0.04  -0.06  -0.07     0.07  -0.08   0.03    -0.09   0.04  -0.08
    12   1    -0.24   0.19  -0.05     0.39  -0.12   0.16    -0.10   0.01   0.02
    13   6    -0.01   0.06   0.10    -0.20   0.06   0.00     0.30  -0.06   0.05
    14   1    -0.04   0.14  -0.25    -0.04   0.05  -0.17     0.00   0.08  -0.05
    15   1    -0.05   0.05  -0.13     0.02  -0.01  -0.06    -0.08   0.08  -0.07
    16   1    -0.16  -0.01  -0.03    -0.04   0.05  -0.02    -0.09  -0.02  -0.05
    17   1     0.07   0.08   0.15     0.01   0.00   0.06     0.20  -0.08  -0.01
    18   1    -0.02   0.09   0.04    -0.31   0.04  -0.30     0.46   0.09   0.29
    19   1    -0.08   0.00   0.16    -0.43   0.18   0.19     0.50  -0.24  -0.10
    20   8     0.16   0.01  -0.12    -0.01   0.01  -0.18     0.11   0.03   0.03
    21   8    -0.21   0.18   0.00     0.29  -0.09   0.11     0.08  -0.02   0.03
    22   8     0.03   0.02  -0.02    -0.18   0.08   0.10    -0.31   0.05   0.00
                      4                      5                      6
                      A                      A                      A
 Frequencies --     25.0397                45.7019                51.8137
 Red. masses --      3.8775                 2.1457                 2.2291
 Frc consts  --      0.0014                 0.0026                 0.0035
 IR Inten    --      8.5423                 1.3564                 3.3420
  Atom  AN      X      Y      Z        X      Y      Z        X      Y      Z
     1   6     0.03  -0.04   0.00     0.09  -0.01   0.18    -0.06   0.01  -0.07
     2   6    -0.05  -0.06  -0.07    -0.01  -0.04   0.08     0.00   0.02   0.01
     3   6    -0.13  -0.02  -0.02    -0.05   0.12  -0.09     0.06  -0.05   0.04
     4   6     0.00   0.02   0.04     0.01  -0.01  -0.05     0.00  -0.01   0.01
     5   6     0.11   0.02   0.06    -0.03  -0.01   0.02     0.01   0.04   0.00
     6   6     0.17   0.01   0.17     0.00  -0.01   0.06    -0.01   0.03   0.00
     7   1     0.10  -0.04  -0.13     0.13  -0.13   0.32    -0.08   0.09  -0.16
     8   1    -0.10  -0.05   0.04     0.21   0.13   0.20    -0.13  -0.09  -0.09
     9   1    -0.09  -0.08  -0.14     0.06  -0.06   0.18     0.00   0.03   0.01
    10   1     0.01  -0.08  -0.11    -0.13  -0.18   0.06     0.01   0.09   0.04
    11   1    -0.18   0.03   0.02    -0.07   0.26  -0.19     0.06  -0.04   0.03
    12   1    -0.12  -0.02   0.08    -0.01  -0.02  -0.04    -0.19  -0.14   0.12
    13   6     0.05   0.02  -0.01     0.04  -0.01  -0.07     0.08   0.00  -0.13
    14   1     0.29   0.04   0.30    -0.03  -0.01   0.03     0.00   0.06  -0.02
    15   1     0.16  -0.10   0.35     0.03   0.02  -0.03    -0.03   0.01   0.06
    16   1     0.32   0.16   0.20    -0.10  -0.03   0.08     0.04   0.06   0.00
    17   1    -0.11   0.02  -0.08     0.38  -0.10   0.03     0.49  -0.20  -0.06
    18   1     0.11   0.03   0.17    -0.02   0.08  -0.43     0.03   0.16  -0.60
    19   1     0.21   0.02  -0.15    -0.23  -0.01   0.18    -0.23   0.05   0.13
    20   8    -0.11   0.00  -0.29    -0.06  -0.01  -0.03     0.05   0.03   0.02
[...]
 -0.00014485,0.00002607,0.00018701,0.00007922,-0.00030328,0.00000188,0.
 00036022,-0.00007685,-0.00009355,0.00022345,-0.00001063,-0.00003707,0.
 00009762,-0.00003689,0.00005798,0.00002500,0.02909568,0.20689805,-0.00
 030399,-0.00030831,-0.00009735,0.00008051,-0.00011180,-0.00023591,-0.0
 0002237,0.00010313,-0.00012817,-0.00800921,-0.05631288,-0.02139883,0.0
 0023537,0.00036603,-0.00010522,-0.00014901,-0.00032013,-0.00001345,0.0
 0015026,0.00031420,-0.00020910,0.00027376,0.00030470,0.00028891,0.0000
 0212,-0.00005388,0.00035515,0.00002765,0.00002845,0.00002316,0.0000259
 2,-0.00001513,0.00005328,0.00648522,0.06413646,0.07014915,0.00033865,0
 .00021771,0.00039089,0.00087505,0.00058947,0.00015001,0.00029352,-0.00
 132699,0.00055932,-0.08579069,-0.02652551,-0.00442717,-0.00002999,-0.0
 0025211,-0.00019580,0.00020245,0.00006312,0.00030345,-0.00015987,-0.00
 005236,-0.00001146,-0.00019670,-0.00008685,-0.00041706,-0.00069942,-0.
 00005767,0.00043895,-0.00019882,0.00002157,0.00000988,-0.00025158,0.00
 041603,-0.00033680,0.00407945,-0.00055522,0.00029255,0.38982688,0.0002
 7643,0.00035812,-0.00017983,0.00029467,0.00084142,0.00010886,-0.000869
 59,-0.00077625,0.00143581,-0.02429393,-0.22040155,-0.02108899,-0.00013
 622,-0.00083683,0.00021215,-0.00002743,0.00059211,-0.00007169,-0.00011
 620,-0.00010537,0.00018767,-0.00016969,-0.00033563,0.00038504,-0.00008
 514,-0.00055690,-0.00008250,-0.00002317,-0.00004612,-0.00010928,0.0003
 8731,0.00000725,-0.00048037,-0.00048876,0.00205522,-0.00132238,0.01890
 763,0.48165650,-0.00039587,-0.00000839,-0.00017033,0.00076852,0.000032
 89,-0.00119883,0.00028446,0.00147491,-0.00158364,-0.00479872,-0.023040
 35,-0.07537052,-0.00034697,0.00075418,0.00024844,0.00049827,-0.0001933
 3,-0.00053075,0.00007963,0.00006552,0.00019570,-0.00022521,0.00014995,
 0.00024399,0.00011978,-0.00017831,0.00083495,0.00009713,-0.00009757,0.
 00030730,-0.00037278,-0.00075650,0.00012730,0.00112437,0.00107883,-0.0
 0553492,0.00015574,0.01125294,0.42159793,0.00004345,0.00129905,0.00024
 910,-0.00024711,-0.00002734,0.00013731,-0.00001761,0.00000903,0.000029
 94,0.00000601,0.00001379,0.00001040,-0.14731624,-0.00555311,0.06605344
 ,-0.01058063,0.00962761,0.01807820,0.00009501,0.00009145,-0.00002988,0
 .00007299,0.00001130,-0.00003581,-0.00001375,0.00006400,0.00001272,0.0
 0002859,0.00000183,0.00001708,0.00001274,-0.00000362,-0.00000755,0.000
 00820,0.00001863,0.00001193,-0.00000581,-0.00000884,0.00000927,0.17234
 705,0.00055357,-0.00205663,-0.00026948,0.00069628,-0.00002811,-0.00052
 364,0.00006353,-0.00002282,-0.00005447,-0.00002694,-0.00017383,0.00017
 081,-0.00174129,-0.03073475,0.00062250,0.01997570,-0.00603325,-0.01365
 263,-0.00013491,-0.00031184,0.00004480,-0.00004552,-0.00024215,0.00019
 662,-0.00002388,-0.00016926,0.00002644,-0.00011201,0.00005782,-0.00002
 755,0.00002348,0.00006262,0.00006763,0.00002525,-0.00009522,-0.0000400
 3,0.00002543,0.00007406,-0.00011135,0.01450069,0.05819154,0.00030625,-
 0.00055349,0.00033355,0.00008308,0.00000950,-0.00012481,-0.00000963,0.
 00002454,-0.00001584,0.00003375,-0.00001612,-0.00006200,0.06594339,0.0
 0343761,-0.10169654,0.01752406,-0.00648766,0.00298814,0.00000285,0.000
 03679,0.00010805,-0.00001887,-0.00011049,0.00006612,0.00001642,-0.0000
 3363,-0.00000870,-0.00001335,0.00000409,0.00000634,0.00000175,-0.00001
 391,0.00001158,0.00003784,-0.00001620,-0.00000246,-0.00002324,0.000019
 57,0.00000449,-0.10876448,-0.01142009,0.09756378,-0.02870197,-0.016215
 10,0.00260425,-0.00073551,0.00027982,-0.00002228,-0.00047552,0.0004022
 6,0.00032983,0.00000529,-0.00004956,0.00034899,0.00834746,-0.00324222,
 0.00218294,-0.11825722,-0.07305378,-0.04894641,-0.00182073,-0.00046373
 ,0.00160135,0.00026043,-0.00039987,0.00022389,-0.00002668,-0.00014034,
 0.00001764,-0.00024647,0.00005102,0.00003116,0.00015224,0.00018168,0.0
 0021177,0.00000053,0.00000349,0.00002208,-0.00004478,0.00000360,-0.000
 14464,-0.00051598,0.00068709,-0.00016759,0.15053794,-0.01265592,-0.001
 77123,0.00239607,0.00030035,-0.00039738,-0.00022827,-0.00025021,0.0001
 8565,0.00041080,-0.00005130,0.00015778,0.00035406,-0.01186755,-0.03229
 410,-0.01838140,-0.07384882,-0.09297672,-0.04402603,-0.00043170,-0.000
 04718,0.00008399,-0.00037620,-0.00013868,0.00040649,0.00003819,-0.0000
 4411,-0.00000843,0.00016699,0.00007015,-0.00008013,0.00030473,-0.00014
 861,-0.00040348,-0.00007100,0.00005456,0.00005543,-0.00000546,-0.00014
 310,-0.00004663,0.00116707,-0.00003780,0.00053846,0.09266429,0.1226522
 1,0.01259704,0.00764253,0.00527430,0.00007645,-0.00012084,-0.00039644,
 -0.00005196,0.00024057,0.00002058,0.00014437,0.00014261,0.00001242,-0.
 00448185,-0.01368419,-0.00230400,-0.04981241,-0.04460507,-0.06218880,0
 .00164227,0.00022969,-0.00120572,0.00074280,0.00049106,0.00024013,0.00
 005503,-0.00001976,0.00004207,-0.00001656,-0.00002361,0.00012298,0.000
 23612,-0.00033001,-0.00016266,0.00005607,0.00003478,0.00005524,-0.0001
 8470,-0.00004191,0.00006725,0.00036143,-0.00022744,0.00013000,0.054887
 01,0.05658162,0.07370901,0.00262656,-0.00824624,0.01817223,-0.00039763
 ,0.00000191,0.00017418,-0.00001593,0.00024631,0.00011300,0.00004521,-0
 .00001565,-0.00000498,-0.00400070,0.01456187,-0.00937775,-0.05126537,0
 .02860534,-0.04679919,0.00013808,-0.00038136,0.00067163,-0.00178415,-0
 .00028568,0.00158549,0.00005457,-0.00007799,0.00010488,-0.00036335,0.0
 0033402,0.00034565,0.00011543,-0.00003525,0.00001940,0.00004484,0.0000
 0998,0.00001585,-0.00005881,0.00002521,-0.00001662,0.00003358,0.000330
 63,0.00070995,-0.00764352,0.00243696,-0.01694894,0.06278707,-0.0035566
 8,-0.00026028,0.01056727,0.00031321,-0.00025732,-0.00024846,-0.0001626
 1,0.00002935,0.00024303,-0.00003073,0.00009901,0.00027038,0.01810510,-
 0.02688113,0.01844609,0.02776887,-0.07045484,0.07080301,-0.00034788,-0
 .00021185,0.00041365,-0.00018669,0.00006805,0.00042719,0.00002258,-0.0
 0002617,-0.00003847,0.00036121,0.00010406,-0.00022073,0.00009626,0.000
 00269,-0.00019664,-0.00003322,0.00004683,0.00005880,0.00001174,-0.0000
 9145,-0.00004002,-0.00018735,-0.00018863,-0.00149641,-0.00419100,0.006
 27081,-0.00652440,-0.03766193,0.09327288,0.00741815,0.01229111,-0.0274
 3190,0.00013825,-0.00047572,-0.00080027,-0.00007221,0.00014474,0.00009
 231,0.00007591,0.00007004,-0.00027552,-0.00244896,0.01037260,0.0049820
 9,-0.04494893,0.06885817,-0.15114479,0.00015559,0.00038621,0.00027063,
 0.00157913,0.00041734,-0.00129018,0.00004107,0.00014667,0.00001296,0.0
 0055729,-0.00034001,0.00000502,0.00003375,-0.00010276,-0.00008758,0.00
 003898,0.00000440,-0.00001475,-0.00005965,-0.00000771,0.00012254,-0.00
 001334,-0.00057374,-0.00044540,-0.01168867,0.00199858,-0.01307095,0.05
 021982,-0.08977037,0.18957872,-0.00021434,-0.00017523,-0.00021006,-0.0
 0040550,-0.00046968,0.00002894,-0.00034261,0.00092946,-0.00010551,0.00
 102479,-0.01122776,0.00496070,0.00000237,0.00017168,0.00008042,-0.0000
 9759,-0.00006554,-0.00014637,0.00008307,0.00001815,-0.00001619,0.00011
 118,0.00009735,0.00015506,0.00034836,0.00001772,-0.00043703,0.00010500
 ,-0.00000338,-0.00000649,0.00005592,-0.00045047,0.00030943,0.00019747,
 -0.00026290,0.00011947,-0.05842495,-0.03054101,0.05166085,0.00000381,-
 0.00001819,0.00000755,0.00001566,0.00001642,0.00010256,0.00002629,-0.0
 0000269,0.00002838,0.06271389,-0.00014527,-0.00013039,0.00010013,-0.00
 017049,-0.00050384,0.00025145,0.00053380,0.00039199,-0.00080941,-0.015
 64146,-0.03143708,0.02218938,0.00002434,0.00021321,-0.00006589,0.00000
 250,-0.00021507,0.00006405,0.00005235,0.00000375,-0.00008539,0.0000808
 7,0.00008508,-0.00024761,0.00005646,0.00036997,-0.00014002,0.00002176,
 0.00003832,0.00004054,-0.00043095,-0.00014033,0.00046896,-0.00009153,-
 0.00053154,0.00019614,-0.02915981,-0.07184141,0.06470828,0.00000670,-0
 .00002381,-0.00001080,-0.00000480,0.00006479,0.00001313,-0.00001731,0.
 00003806,0.00000568,0.04172909,0.09743949,0.00042811,0.00019105,0.0000
 0929,-0.00026025,0.00029854,-0.00005904,0.00034862,-0.00087350,0.00026
 493,0.00198092,0.01198634,0.00848985,0.00011507,-0.00060791,-0.0000618
 1,-0.00024565,0.00027755,0.00025349,-0.00011428,-0.00006785,-0.0000112
 9,0.00003601,-0.00024430,0.00001353,-0.00069273,-0.00020761,-0.0006724
 4,-0.00010139,0.00003419,-0.00017731,0.00042263,0.00080878,-0.00029682
 ,0.00005750,0.00047842,-0.00036467,0.05199811,0.06722937,-0.15355830,-
 0.00001059,0.00008224,0.00000545,0.00007914,-0.00001262,-0.00005474,0.
 00001271,-0.00000376,-0.00006780,-0.06493403,-0.08452919,0.17836174,-0
 .00007381,-0.00001529,-0.00009481,-0.00015823,-0.00009725,-0.00010281,
 -0.00003627,0.00030870,-0.00016048,0.00506558,0.01281839,0.00279575,-0
 .00002338,0.00004425,0.00006474,-0.00000505,0.00001065,-0.00009649,0.0
 0003521,0.00000075,0.00003588,-0.00000583,-0.00000596,0.00008981,0.000
 18079,-0.00002924,0.00001440,0.00005876,-0.00001683,0.00001344,0.00001
 432,-0.00010577,0.00009964,0.00009938,0.00035106,-0.00028595,-0.164256
 43,0.07270334,0.04120701,0.00000111,-0.00000689,0.00000631,-0.00000082
 ,-0.00000739,0.00003385,0.00001337,-0.00001007,0.00002211,-0.01070623,
 0.00210727,0.01046330,0.19271232,0.00000905,-0.00002787,0.00005815,-0.
 00008244,-0.00005980,0.00005476,0.00021713,-0.00018478,-0.00003613,0.0
 2450022,-0.03288740,-0.01219998,0.00002662,0.00005460,-0.00004328,-0.0
 0001356,-0.00007199,0.00005512,0.00000542,0.00000997,-0.00003429,0.000
 02787,0.00002114,-0.00007509,-0.00002801,0.00011290,-0.00004993,-0.000
 01928,0.00002084,-0.00000224,-0.00009046,0.00011874,0.00002596,-0.0006
 7100,-0.00017033,-0.00061627,0.07154996,-0.07176306,-0.02156060,0.0000
 0171,-0.00000301,-0.00000465,0.00000459,0.00002448,-0.00000829,-0.0000
 0586,0.00001893,-0.00000926,-0.00436729,0.00592339,0.00142853,-0.09126
 683,0.09528206,0.00007444,-0.00000055,-0.00002559,-0.00023731,-0.00001
 804,0.00013913,-0.00014885,-0.00011954,0.00029521,0.00451170,-0.011589
 77,0.00502941,0.00007110,-0.00014109,-0.00004068,-0.00011006,0.0000692
 4,0.00008167,-0.00000829,-0.00002053,-0.00001955,0.00003143,-0.0000358
 8,0.00000435,0.00009622,-0.00000545,-0.00029919,0.00001113,0.00001018,
 -0.00008069,0.00014498,0.00010686,-0.00007024,-0.00018235,-0.00006590,
 -0.00036423,0.04141069,-0.02164380,-0.04516137,-0.00000277,0.00002321,
 0.00000067,0.00002934,0.00000070,-0.00000687,0.00001132,0.00000006,-0.
 00002303,0.01909001,-0.00421432,-0.00741276,-0.05073366,0.03122459,0.0
 4662404,-0.00004087,-0.00004291,-0.00005710,-0.00019197,-0.00009860,0.
 00004729,-0.00014270,0.00007822,0.00006654,-0.00397382,-0.01362287,-0.
 01122025,0.00004525,0.00000604,0.00002919,-0.00010160,-0.00001102,-0.0
 0003155,0.00002604,0.00001151,-0.00001985,0.00008232,0.00001309,0.0000
 5213,0.00008116,0.00001794,-0.00011984,0.00002918,0.00000143,-0.000019
 23,0.00011720,-0.00001079,0.00006394,0.00019091,-0.00025061,0.00017668
 ,-0.11196681,-0.01654911,-0.08915986,0.00000123,0.00000242,0.00000523,
 0.00003176,0.00000869,0.00004458,0.00001708,0.00000255,0.00000490,0.00
 617122,0.00076152,0.00046329,-0.02030003,0.00330459,-0.01407280,0.1302
 6253,0.00001050,-0.00002405,0.00004003,-0.00010173,-0.00007457,0.00004
 016,0.00010268,-0.00006311,-0.00006945,-0.02343043,-0.01597405,-0.0246
 0094,0.00001182,0.00006632,-0.00003587,-0.00000325,-0.00006344,0.00003
 137,-0.00000123,0.00000044,-0.00001747,0.00000433,0.00002469,-0.000077
 41,0.00000484,0.00004417,-0.00005823,-0.00000162,0.00000723,-0.0000006
 4,-0.00003894,0.00007230,0.00007032,0.00057853,-0.00015800,-0.00101823
 ,-0.01460937,-0.03579402,-0.01459852,0.00000143,-0.00000399,-0.0000044
 8,0.00000481,0.00002469,-0.00000271,-0.00000208,0.00001357,-0.00000464
 ,0.00408567,0.00342007,0.00754601,0.00731217,0.00349283,0.00495884,0.0
 2412608,0.04789637,0.00009900,0.00002106,0.00007215,-0.00004621,0.0000
 6305,0.00013544,-0.00001053,-0.00032455,0.00023570,-0.01045164,-0.0179
 4095,-0.00348060,0.00007387,-0.00014794,-0.00007165,-0.00007849,0.0000
 3071,0.00012849,-0.00002505,-0.00001486,-0.00003906,0.00001987,-0.0000
 2461,-0.00010217,-0.00006101,0.00002116,-0.00012943,-0.00001800,0.0000
 1667,-0.00006065,0.00006398,0.00017491,-0.00009110,0.00005244,-0.00036
 062,-0.00024023,-0.08954473,-0.01598605,-0.13579265,-0.00000119,0.0000
 2143,-0.00000390,0.00002638,0.00001014,-0.00003166,0.00000140,0.000009
 79,-0.00002879,-0.01066192,0.00313182,-0.02150563,-0.00288367,0.001132
 17,0.00424194,0.11271644,0.02666761,0.15873907,-0.00079937,0.00179346,
 0.00134414,0.00065269,0.00056391,-0.00036319,0.00008677,-0.00007766,-0
 .00008692,-0.00000946,-0.00031206,-0.00112381,-0.15526274,-0.22563150,
 0.07721497,0.01857834,0.00247187,0.00082442,0.00015749,-0.00128086,-0.
 00039548,-0.00017551,-0.00048172,-0.00042956,0.00001348,-0.00012059,-0
 .00002059,-0.00013487,-0.00005392,0.00016310,-0.00009684,-0.00004886,-
 0.00002314,0.00006789,-0.00025472,-0.00037619,0.00009562,0.00022270,0.
 00022165,-0.01390232,-0.03482162,0.02435901,-0.00087432,0.00234437,0.0
 0071018,-0.00033630,-0.00038968,-0.00099724,-0.00004066,-0.00004908,-0
 .00001975,0.00001198,-0.00003187,-0.00004416,-0.00005260,-0.00001462,-
 0.00004582,0.15211087,-0.00156914,0.00040938,0.00071773,0.00143100,-0.
 00008612,-0.00083640,0.00041433,-0.00034991,-0.00044612,-0.00016045,-0
 .00123531,0.00071857,-0.23912759,-0.60296006,0.18591548,0.00170414,-0.
 07910353,0.00251872,-0.00004002,-0.00117122,-0.00003969,-0.00003194,-0
 .00084933,0.00050358,-0.00033870,-0.00019330,0.00031739,-0.00048682,0.
 00003800,0.00022332,0.00004918,0.00027232,0.00032536,0.00012804,-0.000
 55875,-0.00021029,0.00018952,0.00054629,-0.00047349,-0.02099095,-0.018
 54754,0.01604811,0.00343420,-0.00133801,0.00035764,0.00020448,-0.00147
 212,-0.00336062,-0.00011749,-0.00012899,0.00038093,-0.00003178,-0.0000
 3427,0.00007920,-0.00001084,-0.00003960,0.00009485,0.25557324,0.705095
 41,0.00115054,-0.00125606,-0.00026944,-0.00037366,-0.00040103,0.000498
 81,-0.00004270,-0.00003132,0.00014298,-0.00029303,0.00043942,0.0009939
 5,0.07767421,0.17633666,-0.11603357,0.00078148,0.00181008,0.01837711,-
 0.00032608,0.00035475,-0.00044021,-0.00036587,0.00105923,0.00003208,-0
 .00006427,0.00010763,-0.00007049,0.00007770,-0.00001798,-0.00020869,0.
 00001618,0.00002694,-0.00006277,-0.00042172,0.00025463,0.00020455,0.00
 012682,-0.00032682,-0.00017123,0.02391540,0.02583865,0.00107921,-0.001
 25108,0.00073859,-0.00021201,0.00098762,-0.00239784,-0.00064757,-0.000
 03293,0.00009711,-0.00001725,-0.00006097,0.00005197,0.00002432,-0.0000
 1290,0.00004616,0.00005415,-0.10218339,-0.20203825,0.09770643,0.000419
 51,-0.00046673,0.00179747,0.00092849,0.00017619,0.00030836,0.00014834,
 -0.00063804,-0.00006781,-0.04520250,-0.00340292,0.00946764,0.00009533,
 0.00001011,-0.00041193,0.00021487,-0.00022376,0.00042964,-0.00039239,-
 0.00013078,-0.00015903,-0.00060147,0.00058015,-0.00136234,-0.00088264,
 -0.00035272,0.00029870,-0.00019970,-0.00003954,0.00002313,-0.00016562,
 0.00016514,-0.00001769,-0.01852795,-0.02678021,0.00044696,0.01002349,-
 0.00446246,-0.00491716,-0.00001380,0.00001370,-0.00004770,0.00000242,0
 .00010307,-0.00014321,-0.00008260,0.00004769,-0.00005793,-0.00099524,0
 .00034231,0.00010780,-0.00107787,-0.00086353,-0.00039437,-0.00030839,0
 .00018654,0.00017981,0.00000138,0.00007154,0.00043643,0.03835005,0.000
 33021,0.00064693,0.00032886,-0.00051025,0.00001754,0.00103571,-0.00020
 657,-0.00053896,0.00080193,-0.00314769,-0.08184869,-0.03872258,-0.0004
 2956,-0.00128370,0.00041129,0.00009036,0.00095179,-0.00006908,-0.00018
 462,-0.00043875,0.00043479,-0.00062694,-0.00098040,0.00021463,0.000213
 76,0.00002324,-0.00110159,-0.00003216,-0.00005234,-0.00010869,0.000139
 01,0.00011988,-0.00033592,-0.02919722,-0.18788232,-0.01053345,-0.00405
 327,-0.02910592,-0.04004704,-0.00001813,0.00011880,0.00003339,-0.00002
 919,-0.00019479,-0.00009496,0.00000675,-0.00014827,0.00001645,0.000511
 58,-0.00002383,-0.00143633,-0.00186297,-0.00073975,-0.00009013,0.00093
 753,-0.00286674,0.00076843,0.00063449,0.00078715,-0.00068598,0.0398775
 1,0.28467322,0.00071070,0.00136196,-0.00175954,0.00132007,0.00167133,-
 0.00087065,-0.00041483,-0.00019060,0.00003881,0.00871757,-0.03961857,-
 0.24248550,-0.00095449,0.00052375,0.00063070,0.00114588,0.00054618,-0.
 00098589,-0.00031292,-0.00023303,0.00109374,-0.00079883,-0.00090647,0.
 00075265,-0.00023679,-0.00147187,0.00050553,-0.00002984,-0.00042282,0.
 00043783,-0.00000461,0.00018346,-0.00073910,-0.00478387,-0.03977460,-0
 .04039828,-0.00324010,-0.03362788,-0.01516700,-0.00001717,-0.00009162,
 0.00003851,-0.00023538,-0.00027222,-0.00010237,0.00000798,-0.00021558,
 0.00017141,0.00003082,-0.00040836,-0.00256202,-0.00119628,0.00050628,-
 0.00103050,0.00085730,0.00031270,0.00010279,0.00088907,-0.00037541,-0.
 00067064,-0.02172406,0.06358756,0.41343568,0.00007971,-0.00000897,0.00
 017814,0.00007278,0.00003689,0.00012847,0.00006626,-0.00022632,0.00013
 328,-0.08558807,-0.10294618,0.08129312,0.00006154,-0.00008095,-0.00016
 833,-0.00003108,-0.00002758,0.00021453,-0.00006403,-0.00002795,-0.0000
 9518,0.00002560,0.00007442,-0.00021484,-0.00010459,0.00007554,-0.00015
 111,-0.00005054,0.00007183,-0.00009191,-0.00005694,-0.00006814,0.00004
 673,-0.00381584,-0.00125920,0.00082838,0.01637603,-0.01503666,0.004147
 52,-0.00000252,0.00001516,-0.00001801,0.00000819,0.00003232,-0.0000529
 1,-0.00002177,0.00002089,-0.00004558,0.00035328,0.00001186,-0.00012725
 ,-0.00155764,-0.00221085,0.00045962,0.00000837,0.00177419,0.00060909,-
 0.00002111,0.00006843,0.00017580,0.01823856,-0.00246267,0.02045360,0.0
 5598264,0.00010643,0.00006198,0.00029574,-0.00026872,0.00021902,0.0004
 0873,-0.00008470,-0.00062777,0.00079581,-0.10053424,-0.45147560,0.3121
 2469,0.00026875,-0.00113070,-0.00016616,-0.00045480,0.00038090,0.00052
 286,-0.00007083,-0.00013318,-0.00022859,0.00030580,-0.00007348,-0.0003
 5047,-0.00000245,0.00015639,-0.00073045,-0.00002297,0.00022553,-0.0003
 9775,0.00006408,-0.00025314,0.00011639,-0.00118157,-0.00741726,0.00538
 825,-0.01530059,-0.05450982,0.02149671,-0.00001049,0.00012927,-0.00000
 299,0.00009311,0.00000031,-0.00006659,-0.00000115,0.00000960,-0.000092
 10,0.00009536,-0.00302818,-0.00265542,-0.00216117,0.00086202,0.0014802
 3,0.00131103,0.00002230,0.00263130,-0.00010081,0.00076292,0.00001737,-
 0.00429082,0.01894527,0.04887420,0.12211163,0.49650086,0.00011582,0.00
 026817,-0.00039620,0.00053482,0.00033897,-0.00036844,-0.00019390,0.000
 29168,-0.00035950,0.08715778,0.34311937,-0.32103322,-0.00049021,0.0005
 4525,0.00037280,0.00059596,0.00010258,-0.00064329,-0.00003033,0.000000
 71,0.00044380,-0.00056237,-0.00024872,0.00050965,-0.00004484,-0.000567
 69,0.00061915,0.00000609,-0.00028772,0.00037360,0.00002809,0.00024285,
 -0.00041551,0.00102383,0.00654378,-0.00200328,0.00262635,0.01412342,0.
 01044680,-0.00000381,-0.00007999,0.00002447,-0.00013729,-0.00012188,0.
 00000993,0.00000499,-0.00009585,0.00011371,-0.00003896,-0.00076973,-0.
 00056566,0.00079028,0.00008783,-0.00188952,0.00019760,0.00079868,-0.00
 217012,0.00039994,-0.00036819,-0.00035378,0.01582365,0.02567376,-0.110
 82295,-0.10767400,-0.38941720,0.42785034\\0.00000048,0.00000062,0.0000
 0050,-0.00000132,0.00000197,-0.00000115,0.00000161,-0.00000166,0.00000
 140,0.00000049,0.00000140,-0.00000261,-0.00000022,-0.00000067,0.000000
 22,-0.00000016,-0.00000039,-0.00000038,0.00000007,0.00000012,0.,0.0000
 0009,-0.00000018,-0.00000002,0.00000027,-0.00000016,0.00000012,-0.0000
 0019,-0.00000106,-0.00000006,-0.00000069,0.00000092,-0.00000103,-0.000
 00002,0.00000025,0.00000002,-0.00000014,-0.00000047,0.00000003,-0.0000
 0015,-0.00000002,0.00000013,0.00000015,0.00000006,0.00000019,0.0000000
 8,-0.00000007,0.00000021,-0.00000004,-0.00000013,0.00000029,0.00000016
 ,-0.00000015,-0.00000005,-0.00000006,-0.00000014,-0.00000007,0.0000002
 0,0.00000085,-0.00000034,-0.00000015,-0.00000012,0.00000162,-0.0000004
 5,-0.00000099,0.00000098\\\@


 ANYONE WHO IS NOT SHOCKED BY QUANTUM THEORY HAS
 NOT UNDERSTOOD IT. -- NIELS BOHR(1885-1962)
 Job cpu time:       0 days  0 hours  0 minutes  1.4 seconds.
 File lengths (MBytes):  RWF=     51 Int=      0 D2E=      0 Chk=      2 Scr=      1
 Normal termination of Gaussian 09 at Tue Feb 16 10:25:34 2021.
