22
Properties=species:S:1:pos:R:3 energy=-13588.188984988607 pbc="F F F"
C       -0.65431877      -0.26803893       1.38643444
C       -0.66076759      -0.12055350      -0.12024347
C        0.65166113      -0.07491375      -0.76610558
C        0.81181622       0.27279178      -2.14606804
C       -0.00524665       0.86856557       3.55438323
C       -0.38059708       1.06250851       2.10425055
H       -1.63142709      -0.67137701       1.72393710
H        0.09428691      -1.02312250       1.71064417
H       -1.18458752      -1.15215593      -0.64026595
H       -1.37447395       0.63208439      -0.48313405
H        1.54373800      -0.28207217      -0.16873668
H       -0.67373247      -2.97895176      -1.46138721
C        1.00897138       1.07793346      -3.15813778
H       -0.17276235       1.74469138       4.20306991
H        0.44536452       1.60544602       1.59811038
H       -1.26046784       1.72902285       2.01356950
H        1.15486606       2.14600546      -3.04405730
H        1.28242089      -1.79863540      -2.30810084
H        1.02768820       0.73935380      -4.18853249
O        0.46410622      -0.15776591       3.99215912
O       -0.95912008      -2.13520788      -1.77222510
O        0.47258189      -1.21560846      -2.02956391
