 Entering Gaussian System, Link 0=g09
 Initial command:
 /cm/shared/apps/Gaussian09/g09/l1.exe "/local/Gau-44348.inp" -scrdir="/local/"
 Entering Link 1 = /cm/shared/apps/Gaussian09/g09/l1.exe PID=     44349.
  
 Copyright (c) 1988,1990,1992,1993,1995,1998,2003,2009,2013,
            Gaussian, Inc.  All Rights Reserved.
  
 This is part of the Gaussian(R) 09 program.  It is based on
 the Gaussian(R) 03 system (copyright 2003, Gaussian, Inc.),
 the Gaussian(R) 98 system (copyright 1998, Gaussian, Inc.),
 the Gaussian(R) 94 system (copyright 1995, Gaussian, Inc.),
 the Gaussian 92(TM) system (copyright 1992, Gaussian, Inc.),
 the Gaussian 90(TM) system (copyright 1990, Gaussian, Inc.),
 the Gaussian 88(TM) system (copyright 1988, Gaussian, Inc.),
 the Gaussian 86(TM) system (copyright 1986, Carnegie Mellon
 University), and the Gaussian 82(TM) system (copyright 1983,
 Carnegie Mellon University). Gaussian is a federally registered
 trademark of Gaussian, Inc.
  
 This software contains proprietary and confidential information,
 including trade secrets, belonging to Gaussian, Inc.
  
 This software is provided under written license and may be
 used, copied, transmitted, or stored only in accord with that
 written license.
  
 The following legend is applicable only to US Government
 contracts under FAR:
  
                    RESTRICTED RIGHTS LEGEND
  
 Use, reproduction and disclosure by the US Government is
 subject to restrictions as set forth in subparagraphs (a)
 and (c) of the Commercial Computer Software - Restricted
 Rights clause in FAR 52.227-19.
  
 Gaussian, Inc.
 340 Quinnipiac St., Bldg. 40, Wallingford CT 06492
  
  
 ---------------------------------------------------------------
 Warning -- This program may not be used in any manner that
 competes with the business of Gaussian, Inc. or will provide
 assistance to any competitor of Gaussian, Inc.  The licensee
 of this program is prohibited from giving any competitor of
 Gaussian, Inc. access to this program.  By using this program,
 the user acknowledges that Gaussian, Inc. is engaged in the
 business of creating and licensing software in the field of
 computational chemistry and represents and warrants to the
 licensee that it is not a competitor of Gaussian, Inc. and that
 it will not use this program in any manner prohibited above.
 ---------------------------------------------------------------
  

 Cite this work as:
 Gaussian 09, Revision D.01,
 M. J. Frisch, G. W. Trucks, H. B. Schlegel, G. E. Scuseria, 
 M. A. Robb, J. R. Cheeseman, G. Scalmani, V. Barone, B. Mennucci, 
 G. A. Petersson, H. Nakatsuji, M. Caricato, X. Li, H. P. Hratchian, 
 A. F. Izmaylov, J. Bloino, G. Zheng, J. L. Sonnenberg, M. Hada, 
 M. Ehara, K. Toyota, R. Fukuda, J. Hasegawa, M. Ishida, T. Nakajima, 
 Y. Honda, O. Kitao, H. Nakai, T. Vreven, J. A. Montgomery, Jr., 
 J. E. Peralta, F. Ogliaro, M. Bearpark, J. J. Heyd, E. Brothers, 
 K. N. Kudin, V. N. Staroverov, T. Keith, R. Kobayashi, J. Normand, 
 K. Raghavachari, A. Rendell, J. C. Burant, S. S. Iyengar, J. Tomasi, 
 M. Cossi, N. Rega, J. M. Millam, M. Klene, J. E. Knox, J. B. Cross, 
 V. Bakken, C. Adamo, J. Jaramillo, R. Gomperts, R. E. Stratmann, 
 O. Yazyev, A. J. Austin, R. Cammi, C. Pomelli, J. W. Ochterski, 
 R. L. Martin, K. Morokuma, V. G. Zakrzewski, G. A. Voth, 
 P. Salvador, J. J. Dannenberg, S. Dapprich, A. D. Daniels, 
 O. Farkas, J. B. Foresman, J. V. Ortiz, J. Cioslowski, 
 and D. J. Fox, Gaussian, Inc., Wallingford CT, 2013.
 
 ******************************************
 Gaussian 09:  ES64L-G09RevD.01 24-Apr-2013
                17-Feb-2021 
 ******************************************
 %nprocshared=1
 Will use up to    1 processors via shared memory.
 ----------------------------------------------------------------------
 #P pm6 scf=qc opt(calcall, ts, noeigentest, cartesian,maxcycle=100) No
 Symm
 ----------------------------------------------------------------------
 1/5=1,6=100,10=4,11=1,14=-1,18=10,26=1,38=1/1,3;
 2/12=2,15=1,17=6,18=5,29=2,40=1/2;
 3/5=2,16=1,25=1,41=3900000,71=2,140=1/1,2,3;
 4/35=1/1;
 5/5=2,8=3,35=1,38=5/8;
 8/6=4,10=90,11=11/1;
 11/6=1,8=1,9=11,15=111,16=1,31=1/1,2,10;
 10/6=1,31=1/2;
 6/7=2,8=2,9=2,10=2,18=1,28=1/1;
 7/7=1,10=1,25=1,30=1/1,2,3,16;
 1/5=1,6=100,10=4,11=1,14=-1,18=10,26=1/3(3);
 2/15=1,29=1/2;
 7/7=1,8=1,9=1,25=1,30=1,44=-1/16;
 99/12=1/99;
 2/15=1,29=1/2;
 3/5=2,16=1,25=1,41=3900000,71=2,135=20,140=1/1,2,3;
 4/5=5,16=3,35=1/1;
 5/5=2,8=3,35=1,38=5/8;
 8/6=4,10=90,11=11/1;
 11/6=1,8=1,9=11,15=111,16=1,31=1/1,2,10;
 10/6=1,31=1/2;
 7/7=1,10=1,25=1,30=1/1,2,3,16;
 1/5=1,6=100,10=4,11=1,14=-1,18=10,26=1/3(-8);
 2/15=1,29=1/2;
 6/7=2,8=2,9=2,10=2,18=1,19=2,28=1/1;
 7/7=1,8=1,9=1,25=1,30=1,44=-1/16;
 99/12=1/99;
 Leave Link    1 at Wed Feb 17 08:27:24 2021, MaxMem=           0 cpu:         0.0
 (Enter /cm/shared/apps/Gaussian09/g09/l101.exe)
 ------------------------------
 Gaussian input prepared by ASE
 ------------------------------
 Symbolic Z-matrix:
 Charge =  0 Multiplicity = 2
 O                    -1.15524   1.81453   3.27207 
 C                    -1.0416    1.24011   2.23936 
 C                    -0.60801   1.69249   0.88832 
 C                     0.79367   1.17933   0.53837 
 C                     0.94166  -0.34633   0.60739 
 C                    -0.07275  -1.14733  -0.20456 
 H                     0.18885  -2.22687  -0.20223 
 C                    -0.2687   -0.60353  -1.62364 
 O                    -1.05852   0.27338  -1.87728 
 C                     0.60117  -1.24479  -2.66261 
 H                    -1.35372  -0.04821   2.20657 
 H                    -1.33796   1.31642   0.11948 
 H                    -0.64188   2.79997   0.81979 
 H                     1.04699   1.53804  -0.48161 
 H                     1.54075   1.6437    1.2151 
 H                     1.9675   -0.62661   0.29369 
 H                     0.85359  -0.68296   1.66734 
 H                     0.26268  -2.26658  -2.89039 
 H                     0.56506  -0.68465  -3.61081 
 H                     1.65241  -1.30916  -2.35658 
 O                    -1.43078  -1.23939   1.66755 
 O                    -1.44521  -1.07154   0.37467 
 
 NAtoms=     22 NQM=       22 NQMF=       0 NMMI=      0 NMMIF=      0
                NMic=       0 NMicF=      0.
                    Isotopes and Nuclear Properties:
 (Nuclear quadrupole moments (NQMom) in fm**2, nuclear magnetic moments (NMagM)
  in nuclear magnetons)

  Atom         1           2           3           4           5           6           7           8           9          10
 IAtWgt=          16          12          12          12          12          12           1          12          16          12
 AtmWgt=  15.9949146  12.0000000  12.0000000  12.0000000  12.0000000  12.0000000   1.0078250  12.0000000  15.9949146  12.0000000
 NucSpn=           0           0           0           0           0           0           1           0           0           0
 AtZEff=   0.0000000   0.0000000   0.0000000   0.0000000   0.0000000   0.0000000   0.0000000   0.0000000   0.0000000   0.0000000
 NQMom=    0.0000000   0.0000000   0.0000000   0.0000000   0.0000000   0.0000000   0.0000000   0.0000000   0.0000000   0.0000000
 NMagM=    0.0000000   0.0000000   0.0000000   0.0000000   0.0000000   0.0000000   2.7928460   0.0000000   0.0000000   0.0000000
 AtZNuc=   8.0000000   6.0000000   6.0000000   6.0000000   6.0000000   6.0000000   1.0000000   6.0000000   8.0000000   6.0000000

  Atom        11          12          13          14          15          16          17          18          19          20
 IAtWgt=           1           1           1           1           1           1           1           1           1           1
 AtmWgt=   1.0078250   1.0078250   1.0078250   1.0078250   1.0078250   1.0078250   1.0078250   1.0078250   1.0078250   1.0078250
 NucSpn=           1           1           1           1           1           1           1           1           1           1
 AtZEff=   0.0000000   0.0000000   0.0000000   0.0000000   0.0000000   0.0000000   0.0000000   0.0000000   0.0000000   0.0000000
 NQMom=    0.0000000   0.0000000   0.0000000   0.0000000   0.0000000   0.0000000   0.0000000   0.0000000   0.0000000   0.0000000
 NMagM=    2.7928460   2.7928460   2.7928460   2.7928460   2.7928460   2.7928460   2.7928460   2.7928460   2.7928460   2.7928460
 AtZNuc=   1.0000000   1.0000000   1.0000000   1.0000000   1.0000000   1.0000000   1.0000000   1.0000000   1.0000000   1.0000000

  Atom        21          22
 IAtWgt=          16          16
 AtmWgt=  15.9949146  15.9949146
 NucSpn=           0           0
 AtZEff=   0.0000000   0.0000000
 NQMom=    0.0000000   0.0000000
 NMagM=    0.0000000   0.0000000
 AtZNuc=   8.0000000   8.0000000
 Leave Link  101 at Wed Feb 17 08:27:24 2021, MaxMem=    33554432 cpu:         0.1
 (Enter /cm/shared/apps/Gaussian09/g09/l103.exe)

 GradGradGradGradGradGradGradGradGradGradGradGradGradGradGradGradGradGrad
 Berny optimization.
 Initialization pass.
 No Z-matrix variables, so optimization will use Cartesian coordinates.
 Trust Radius=3.00D-01 FncErr=1.00D-07 GrdErr=1.00D-07
 Number of steps in this run=    100 maximum allowed number of steps=    132.
 Search for a saddle point of order  1.
 GradGradGradGradGradGradGradGradGradGradGradGradGradGradGradGradGradGrad

 Leave Link  103 at Wed Feb 17 08:27:24 2021, MaxMem=    33554432 cpu:         0.0
 (Enter /cm/shared/apps/Gaussian09/g09/l202.exe)
 ---------------------------------------------------------------------------------------------------
                            Z-MATRIX (ANGSTROMS AND DEGREES)
   CD    Cent   Atom    N1       Length/X        N2       Alpha/Y        N3        Beta/Z          J
 ---------------------------------------------------------------------------------------------------
      1      1  O        0  -1.155237          1.814529          3.272074
      2      2  C        0  -1.041595          1.240109          2.239362
      3      3  C        0  -0.608009          1.692488          0.888322
      4      4  C        0   0.793670          1.179334          0.538369
      5      5  C        0   0.941661         -0.346334          0.607385
      6      6  C        0  -0.072746         -1.147333         -0.204559
      7      7  H        0   0.188852         -2.226874         -0.202227
      8      8  C        0  -0.268698         -0.603530         -1.623639
      9      9  O        0  -1.058515          0.273379         -1.877283
     10     10  C        0   0.601173         -1.244790         -2.662608
     11     11  H        0  -1.353722         -0.048212          2.206570
     12     12  H        0  -1.337959          1.316415          0.119482
     13     13  H        0  -0.641881          2.799968          0.819793
     14     14  H        0   1.046993          1.538037         -0.481612
     15     15  H        0   1.540750          1.643700          1.215103
     16     16  H        0   1.967501         -0.626613          0.293686
     17     17  H        0   0.853588         -0.682960          1.667341
     18     18  H        0   0.262682         -2.266582         -2.890389
     19     19  H        0   0.565063         -0.684646         -3.610808
     20     20  H        0   1.652412         -1.309161         -2.356580
     21     21  O        0  -1.430778         -1.239385          1.667552
     22     22  O        0  -1.445205         -1.071538          0.374666
 ---------------------------------------------------------------------------------------------------
                         Z-Matrix orientation:                         
 ---------------------------------------------------------------------
 Center     Atomic      Atomic             Coordinates (Angstroms)
 Number     Number       Type             X           Y           Z
 ---------------------------------------------------------------------
      1          8           0       -1.155237    1.814529    3.272074
      2          6           0       -1.041595    1.240109    2.239362
      3          6           0       -0.608009    1.692488    0.888322
      4          6           0        0.793670    1.179334    0.538369
      5          6           0        0.941661   -0.346334    0.607385
      6          6           0       -0.072746   -1.147333   -0.204559
      7          1           0        0.188852   -2.226874   -0.202227
      8          6           0       -0.268698   -0.603530   -1.623639
      9          8           0       -1.058515    0.273379   -1.877283
     10          6           0        0.601173   -1.244790   -2.662608
     11          1           0       -1.353722   -0.048212    2.206570
     12          1           0       -1.337959    1.316415    0.119482
     13          1           0       -0.641881    2.799968    0.819793
     14          1           0        1.046993    1.538037   -0.481612
     15          1           0        1.540750    1.643700    1.215103
     16          1           0        1.967501   -0.626613    0.293686
     17          1           0        0.853588   -0.682960    1.667341
     18          1           0        0.262682   -2.266582   -2.890389
     19          1           0        0.565063   -0.684646   -3.610808
     20          1           0        1.652412   -1.309161   -2.356580
     21          8           0       -1.430778   -1.239385    1.667552
     22          8           0       -1.445205   -1.071538    0.374666
 ---------------------------------------------------------------------
                    Distance matrix (angstroms):
                    1          2          3          4          5
     1  O    0.000000
     2  C    1.187168   0.000000
     3  C    2.448801   1.489279   0.000000
     4  C    3.416849   2.503052   1.533133   0.000000
     5  C    4.020806   3.018850   2.576276   1.534382   0.000000
     6  C    4.693761   3.551239   3.089576   2.591524   1.526392
     7  H    5.496388   4.415351   4.145562   3.537872   2.181427
     8  C    5.531814   4.349615   3.420055   2.996916   2.551193
     9  O    5.375907   4.228666   3.140923   3.175959   3.249357
    10  C    6.903974   5.736089   4.764329   4.019911   3.408227
    11  H    2.155110   1.325998   2.307358   2.983464   2.813370
    12  H    3.196927   2.141856   1.124888   2.176718   2.863468
    13  H    2.692268   2.146650   1.110115   2.183223   3.528730
    14  H    4.360782   3.443060   2.153974   1.110496   2.178959
    15  H    3.395388   2.807222   2.174013   1.109835   2.165286
    16  H    4.957970   4.040416   3.516401   2.167762   1.108743
    17  H    3.584410   2.759913   2.895840   2.178602   1.115608
    18  H    7.526082   6.349202   5.541750   4.890058   4.047566
    19  H    7.521926   6.364788   5.221976   4.554377   4.248462
    20  H    7.022968   5.905856   4.964755   3.912899   3.196450
    21  O    3.460752   2.574164   3.143251   3.474683   2.747719
    22  O    4.099809   2.997283   2.933356   3.178960   2.505436
                    6          7          8          9         10
     6  C    0.000000
     7  H    1.110787   0.000000
     8  C    1.532288   2.205677   0.000000
     9  O    2.405861   3.257760   1.207110   0.000000
    10  C    2.550621   2.681039   1.499115   2.382464   0.000000
    11  H    2.943214   3.595609   4.019472   4.107119   5.381664
    12  H    2.788516   3.871633   2.804992   2.270040   4.249709
    13  H    4.117572   5.196516   4.206355   3.719066   5.480179
    14  H    2.922633   3.871565   2.760721   2.824964   3.563653
    15  H    3.522595   4.337948   4.047543   4.265772   4.925731
    16  H    2.163794   2.443431   2.945718   3.831431   3.314916
    17  H    2.139567   2.514126   3.477986   4.139454   4.373537
    18  H    2.928978   2.689469   2.157026   3.036996   1.100236
    19  H    3.496200   3.760110   2.156520   2.561040   1.101884
    20  H    2.762888   2.761420   2.173886   3.175419   1.096768
    21  O    2.314633   2.663533   3.547771   3.872065   4.783214
    22  O    1.491607   2.082726   2.365676   2.651340   3.666430
                   11         12         13         14         15
    11  H    0.000000
    12  H    2.493670   0.000000
    13  H    3.246844   1.782103   0.000000
    14  H    3.937758   2.469499   2.477584   0.000000
    15  H    3.496218   3.097494   2.501420   1.770255   0.000000
    16  H    3.876106   3.838199   4.339023   2.476718   2.487056
    17  H    2.359214   3.346079   3.884012   3.096487   2.467804
    18  H    5.789034   4.945629   6.344574   4.570829   5.811956
    19  H    6.158626   4.641207   5.764501   3.868390   5.446336
    20  H    5.607956   4.686881   5.677858   3.462452   4.635599
    21  O    1.309722   2.989523   4.202074   4.297945   4.164957
    22  O    2.100342   2.403943   3.978948   3.708658   4.122472
                   16         17         18         19         20
    16  H    0.000000
    17  H    1.769436   0.000000
    18  H    3.966641   4.861063   0.000000
    19  H    4.149129   5.286029   1.764358   0.000000
    20  H    2.754825   4.149962   1.770016   1.773537   0.000000
    21  O    3.716355   2.351156   4.969685   5.670291   5.069967
    22  O    3.442540   2.665793   3.873705   4.480498   4.136593
                   21         22
    21  O    0.000000
    22  O    1.303816   0.000000
 Symmetry turned off by external request.
 Stoichiometry    C7H11O4(2)
 Framework group  C1[X(C7H11O4)]
 Deg. of freedom    60
 Full point group                 C1      NOp   1
 Rotational constants (GHZ):      1.9525472      0.7330953      0.6644961
 Leave Link  202 at Wed Feb 17 08:27:24 2021, MaxMem=    33554432 cpu:         0.0
 (Enter /cm/shared/apps/Gaussian09/g09/l301.exe)
 Standard basis: VSTO-6G (5D, 7F)
 Ernie: Thresh=  0.10000D-02 Tol=  0.10000D-05 Strict=F.
  NNHCO=     0 NNPyr=     0 NCTC=     0               EPep=         0.000000000
    EC=       318.363330812  ECS=         4.381108096   EG=         0.370014120
   EHC=         0.001457315  EAt=       -76.388488019  AtH=         3.199295150
 EPDDG=         0.000000000  ECC=       323.115910343 EAtT=        79.587783169
    55 basis functions,   330 primitive gaussians,    55 cartesian basis functions
    32 alpha electrons       31 beta electrons
       nuclear repulsion energy       402.7036935116 Hartrees.
 IExCor=    0 DFT=F Ex=HF Corr=None ExCW=0 ScaHFX=  1.000000
 ScaDFX=  1.000000  1.000000  1.000000  1.000000 ScalE2=  1.000000  1.000000
 IRadAn=      0 IRanWt=     -1 IRanGd=            0 ICorTp=0 IEmpDi=  4
 Integral buffers will be    131072 words long.
 Regular integral format.
 Two-electron integral symmetry is turned off.
 Leave Link  301 at Wed Feb 17 08:27:24 2021, MaxMem=    33554432 cpu:         0.0
 (Enter /cm/shared/apps/Gaussian09/g09/l302.exe)
 Do NDO integrals.
 NPDir=0 NMtPBC=     1 NCelOv=     1 NCel=       1 NClECP=     1 NCelD=      1
         NCelK=      1 NCelE2=     1 NClLst=     1 CellRange=     0.0.
 One-electron integrals computed using PRISM.
 NBasis=    55 RedAO= F EigKep=  0.00D+00  NBF=    55
 NBsUse=    55 1.00D-04 EigRej=  0.00D+00 NBFU=    55
 Leave Link  302 at Wed Feb 17 08:27:24 2021, MaxMem=    33554432 cpu:         0.0
 (Enter /cm/shared/apps/Gaussian09/g09/l303.exe)
 DipDrv:  MaxL=1.
 Leave Link  303 at Wed Feb 17 08:27:24 2021, MaxMem=    33554432 cpu:         0.0
 (Enter /cm/shared/apps/Gaussian09/g09/l401.exe)
 Simple Huckel Guess.
 JPrj=0 DoOrth=F DoCkMO=F.
 Initial guess <Sx>= 0.0000 <Sy>= 0.0000 <Sz>= 0.5000 <S**2>= 0.7500 S= 0.5000
 Leave Link  401 at Wed Feb 17 08:27:24 2021, MaxMem=    33554432 cpu:         0.0
 (Enter /cm/shared/apps/Gaussian09/g09/l508.exe)
 Direct SCF.
 Tight linear equation convergence will be used.
 UPM6 wavefunction.
 Quadratic Convergence SCF Method.
 Line search only if initial step raises energy.
 Two-electron integral symmetry not used.
 ReadGW:  IGet=1 IStart=       59293 Next=       59293 LGW=           0.
 Keep J ints in memory in canonical form, NReq=909807.
 FoFCou: FMM=F IPFlag=           0 FMFlag=           0 FMFlg1=           0
         NFxFlg=           0 DoJE=F BraDBF=F KetDBF=F FulRan=T
         wScrn=  0.000000 ICntrl=     600 IOpCl=  2 I1Cent=           0 NGrid=           0
         NMat0=    1 NMatS0=    121 NMatT0=    0 NMatD0=    1 NMtDS0=    0 NMtDT0=    0
 Symmetry not used in FoFCou.
 Iteration   1 EE= 0.523659838541448                                    Grad=5.301D-01 Max rot=    3.5913 deg.
 Gradient too large for Newton-Raphson -- use scaled steepest descent instead.
 Alpha Gap=     0.319 HL deriv= 5.24D-04
  Beta Gap=     0.343 HL deriv= 1.89D-02
     ILin= 1 X=0.000D+00 Y= 5.236598385414D-01 DE= 0.00D+00 F= -7.16D-01
     ILin= 2 X=3.000D-01 Y= 3.258136025647D-01 DE=-1.98D-01 F= -6.00D-01
     ILin= 3 X=5.000D-01 Y= 2.142166458116D-01 DE=-3.09D-01 F= -5.15D-01
     ILin= 4 X=8.000D-01 Y= 8.053617678428D-02 DE=-4.43D-01 F= -3.74D-01
     ILin= 5 X=1.200D+00 Y=-2.812078063073D-02 DE=-5.52D-01 F= -1.65D-01
     ILin= 6 X=2.000D+00 Y= 2.482185572330D-02 DE=-4.99D-01 F=  3.07D-01
     An  expanding polynomial of degree  6 produced  1.4913
 Iteration   2 EE=-0.524370695019343E-01 Delta-E=       -0.576096908043 Grad=1.490D-01 Max rot=    1.3118 deg.
 Gradient too large for Newton-Raphson -- use scaled steepest descent instead.
 Alpha Gap=     0.350 HL deriv= 8.60D-06
  Beta Gap=     0.352 HL deriv= 1.03D-02
     ILin= 1 X=0.000D+00 Y=-5.243706950193D-02 DE= 0.00D+00 F= -5.56D-02
     ILin= 2 X=7.000D-01 Y=-8.172595520659D-02 DE=-2.93D-02 F= -2.80D-02
     ILin= 3 X=1.200D+00 Y=-9.069452540314D-02 DE=-3.83D-02 F= -7.87D-03
     ILin= 4 X=2.100D+00 Y=-8.132084674043D-02 DE=-2.89D-02 F=  2.88D-02
     An  expanding polynomial of degree  4 produced  1.3948
 Iteration   3 EE=-0.914596097840104E-01 Delta-E=       -0.039022540282 Grad=5.303D-02 Max rot=    0.5177 deg.
 Gradient too large for Newton-Raphson -- use scaled steepest descent instead.
 Alpha Gap=     0.353 HL deriv= 4.94D-05
  Beta Gap=     0.361 HL deriv= 5.34D-03
     ILin= 1 X=0.000D+00 Y=-9.145960978401D-02 DE= 0.00D+00 F= -8.13D-03
     ILin= 2 X=1.400D+00 Y=-9.670815038294D-02 DE=-5.25D-03 F=  6.74D-04
     Accept linear search using points  1 and  2.
     An  expanding polynomial of degree  2 produced  1.3508
     Minimum is close to point  2 DX= -4.92D-02 DF= -1.17D-05 DXR=  3.64D-02 DFR=  2.24D-03 which will be used.
 Iteration   4 EE=-0.967081503829377E-01 Delta-E=       -0.005248540599 Grad=2.737D-02 Max rot=    0.3027 deg.
 Gradient too large for Newton-Raphson -- use scaled steepest descent instead.
 Alpha Gap=     0.357 HL deriv= 5.86D-04
  Beta Gap=     0.356 HL deriv= 1.99D-03
     ILin= 1 X=0.000D+00 Y=-9.670815038294D-02 DE= 0.00D+00 F= -2.08D-03
     ILin= 2 X=1.400D+00 Y=-9.806054905903D-02 DE=-1.35D-03 F=  1.43D-04
     Accept linear search using points  1 and  2.
     An  expanding polynomial of degree  2 produced  1.3589
     Minimum is close to point  2 DX= -4.11D-02 DF= -2.08D-06 DXR=  3.02D-02 DFR=  1.54D-03 which will be used.
 Iteration   5 EE=-0.980605490590278E-01 Delta-E=       -0.001352398676 Grad=1.507D-02 Max rot=    0.1595 deg.
 Gradient too large for Newton-Raphson -- use scaled steepest descent instead.
 Alpha Gap=     0.358 HL deriv= 2.68D-04
  Beta Gap=     0.358 HL deriv= 2.51D-03
     ILin= 1 X=0.000D+00 Y=-9.806054905903D-02 DE= 0.00D+00 F= -6.68D-04
     ILin= 2 X=1.400D+00 Y=-9.852689083255D-02 DE=-4.66D-04 F=  2.41D-06
     Accept linear search using points  1 and  2.
     An  expanding polynomial of degree  2 produced  1.3980
     Minimum is close to point  2 DX= -2.03D-03 DF= -1.75D-09 DXR=  1.45D-03 DFR=  3.75D-06 which will be used.
 Iteration   6 EE=-0.985268908325452E-01 Delta-E=       -0.000466341774 Grad=8.959D-03 Max rot=    0.1429 deg.
 QCNR:  CnvC1=3.85D-09 CnvC2=3.85D-08
 LinEq1:  Iter=  0 NonCon=     1 RMS=4.19D-04 Max=9.11D-03 NDo=     1
 AX will form     1 AO Fock derivatives at one time.
 LinEq1:  Iter=  1 NonCon=     1 RMS=1.05D-04 Max=1.08D-03 NDo=     1
 LinEq1:  Iter=  2 NonCon=     1 RMS=2.69D-05 Max=3.81D-04 NDo=     1
 LinEq1:  Iter=  3 NonCon=     1 RMS=5.75D-06 Max=3.84D-05 NDo=     1
 LinEq1:  Iter=  4 NonCon=     1 RMS=7.97D-07 Max=4.99D-06 NDo=     1
 LinEq1:  Iter=  5 NonCon=     1 RMS=1.60D-07 Max=1.89D-06 NDo=     1
 LinEq1:  Iter=  6 NonCon=     1 RMS=3.57D-08 Max=3.92D-07 NDo=     1
 LinEq1:  Iter=  7 NonCon=     1 RMS=8.47D-09 Max=8.60D-08 NDo=     1
 LinEq1:  Iter=  8 NonCon=     0 RMS=1.97D-09 Max=2.08D-08 NDo=     1
 Linear equations converged to 3.847D-09 3.847D-08 after     8 iterations.
 Angle between quadratic step and gradient=  50.31 degrees.
     ILin= 1 X=0.000D+00 Y=-9.852689083255D-02 DE= 0.00D+00 F= -8.19D-04
     ILin= 2 X=1.000D+00 Y=-9.892679842608D-02 DE=-4.00D-04 F=  2.95D-05
     Accept linear search using points  1 and  2.
     An  expanding polynomial of degree  2 produced  0.9664
     Minimum is close to point  2 DX= -3.36D-02 DF= -4.94D-07 DXR=  3.47D-02 DFR=  1.24D-03 which will be used.
 Iteration   7 EE=-0.989267984260778E-01 Delta-E=       -0.000399907594 Grad=3.505D-04 Max rot=    0.0073 deg.
 QCNR:  CnvC1=3.51D-09 CnvC2=3.51D-08
 LinEq1:  Iter=  0 NonCon=     1 RMS=1.96D-05 Max=3.38D-04 NDo=     1
 LinEq1:  Iter=  1 NonCon=     1 RMS=3.32D-06 Max=5.16D-05 NDo=     1
 LinEq1:  Iter=  2 NonCon=     1 RMS=6.31D-07 Max=6.70D-06 NDo=     1
 LinEq1:  Iter=  3 NonCon=     1 RMS=1.17D-07 Max=9.39D-07 NDo=     1
 LinEq1:  Iter=  4 NonCon=     1 RMS=2.09D-08 Max=1.80D-07 NDo=     1
 LinEq1:  Iter=  5 NonCon=     1 RMS=4.36D-09 Max=3.48D-08 NDo=     1
 LinEq1:  Iter=  6 NonCon=     0 RMS=1.04D-09 Max=1.10D-08 NDo=     1
 Linear equations converged to 3.505D-09 3.505D-08 after     6 iterations.
 Angle between quadratic step and gradient=  35.69 degrees.
     ILin= 1 X=0.000D+00 Y=-9.892679842608D-02 DE= 0.00D+00 F= -1.97D-06
     ILin= 2 X=1.000D+00 Y=-9.892778572146D-02 DE=-9.87D-07 F= -6.57D-09
     Reject lnstep minimum 1.003D+00 FVal=-9.892778573248D-02 Lims=  0.00D+00  1.00D+00
     ILin= 3 X=2.000D+00 Y=-9.892681623376D-02 DE=-1.78D-08 F=  1.94D-06
     An  expanding polynomial of degree  3 produced  1.0046
     Minimum is close to point  2 DX=  4.55D-03 DF= -2.03D-11 DXR=  4.53D-03 DFR=  2.05D-05 which will be used.
 Iteration   8 EE=-0.989277857214574E-01 Delta-E=       -0.000000987295 Grad=2.490D-06 Max rot=    0.0000 deg.
 QCNR:  CnvC1=2.49D-11 CnvC2=2.49D-10
 LinEq1:  Iter=  0 NonCon=     1 RMS=1.18D-07 Max=2.15D-06 NDo=     1
 LinEq1:  Iter=  1 NonCon=     1 RMS=3.59D-08 Max=2.71D-07 NDo=     1
 LinEq1:  Iter=  2 NonCon=     1 RMS=7.88D-09 Max=6.21D-08 NDo=     1
 LinEq1:  Iter=  3 NonCon=     1 RMS=1.77D-09 Max=2.05D-08 NDo=     1
 LinEq1:  Iter=  4 NonCon=     1 RMS=2.97D-10 Max=3.90D-09 NDo=     1
 LinEq1:  Iter=  5 NonCon=     1 RMS=6.90D-11 Max=1.13D-09 NDo=     1
 LinEq1:  Iter=  6 NonCon=     0 RMS=1.38D-11 Max=1.96D-10 NDo=     1
 Linear equations converged to 2.490D-11 2.490D-10 after     6 iterations.
 Angle between quadratic step and gradient=  49.28 degrees.
     ILin= 1 X=0.000D+00 Y=-9.892778572146D-02 DE= 0.00D+00 F= -5.43D-11
     ILin= 2 X=1.000D+00 Y=-9.892778575022D-02 DE=-2.88D-11
 Iteration   9 EE=-0.989277857502202E-01 Delta-E=       -0.000000000029 Grad=2.588D-08 Max rot=    0.0000 deg.
 Rotation gradient small -- convergence achieved.
 SCF Done:  E(UPM6) = -0.989277857502E-01 a.u. after    9 cycles
            Convg  =    0.2588D-07                    38 Fock formations.
              S**2 =  0.7975                  -V/T =  0.9974
 <Sx>= 0.0000 <Sy>= 0.0000 <Sz>= 0.5000 <S**2>= 0.7975 S= 0.5235
 <L.S>= 0.000000000000E+00
 Annihilation of the first spin contaminant:
 S**2 before annihilation     0.7975,   after     0.7506
 Leave Link  508 at Wed Feb 17 08:27:24 2021, MaxMem=    33554432 cpu:         0.1
 (Enter /cm/shared/apps/Gaussian09/g09/l801.exe)
 Range of M.O.s used for correlation:     1    55
 NBasis=    55 NAE=    32 NBE=    31 NFC=     0 NFV=     0
 NROrb=     55 NOA=    32 NOB=    31 NVA=    23 NVB=    24
 Leave Link  801 at Wed Feb 17 08:27:24 2021, MaxMem=    33554432 cpu:         0.0
 (Enter /cm/shared/apps/Gaussian09/g09/l1101.exe)
 Using compressed storage, NAtomX=    22.
 Will process     23 centers per pass.
 Leave Link 1101 at Wed Feb 17 08:27:24 2021, MaxMem=    33554432 cpu:         0.1
 (Enter /cm/shared/apps/Gaussian09/g09/l1102.exe)
 Symmetrizing basis deriv contribution to polar:
 IMax=3 JMax=2 DiffMx= 0.00D+00
 Leave Link 1102 at Wed Feb 17 08:27:24 2021, MaxMem=    33554432 cpu:         0.0
 (Enter /cm/shared/apps/Gaussian09/g09/l1110.exe)
 Forming Gx(P) for the SCF density, NAtomX=    22.
 Integral derivatives from FoFJK, PRISM(SPDF).
 Do as many integral derivatives as possible in FoFJK.
 G2DrvN: MDV=      33495261.
 G2DrvN: will do    23 centers at a time, making    1 passes.
 Calling FoFCou, ICntrl=  3107 FMM=F I1Cent=   0 AccDes= 0.00D+00.
 FoFJK:  IHMeth=40 ICntrl=    3107 DoSepK=F KAlg= 0 I1Cent=   0 FoldK=F
 IRaf=         0 NMat=   1 IRICut=       1 DoRegI=T DoRafI=F ISym2E= 0.
 FoFCou: FMM=F IPFlag=           0 FMFlag=      100000 FMFlg1=           0
         NFxFlg=           0 DoJE=F BraDBF=F KetDBF=F FulRan=T
         wScrn=  0.000000 ICntrl=    3107 IOpCl=  1 I1Cent=           0 NGrid=           0
         NMat0=    1 NMatS0=      1 NMatT0=    0 NMatD0=    1 NMtDS0=    0 NMtDT0=    0
 Symmetry not used in FoFCou.
 End of G2Drv F.D. properties file   721 does not exist.
 End of G2Drv F.D. properties file   722 does not exist.
 End of G2Drv F.D. properties file   788 does not exist.
 Leave Link 1110 at Wed Feb 17 08:27:24 2021, MaxMem=    33554432 cpu:         0.0
 (Enter /cm/shared/apps/Gaussian09/g09/l1002.exe)
 Minotr:  UHF open shell wavefunction.
          IDoAtm=1111111111111111111111
          Direct CPHF calculation.
          Differentiating once with respect to electric field.
                with respect to dipole field.
          Differentiating once with respect to nuclear coordinates.
          Electric field/nuclear overlap derivatives assumed to be zero.
          Requested convergence is 1.0D-08 RMS, and 1.0D-07 maximum.
          NewPWx=T KeepS1=F KeepF1=F KeepIn=T MapXYZ=F SortEE=F KeepMc=T.
          MDV=      33495207 using IRadAn=       2.
 Keep J ints in memory in canonical form, NReq=889842.
 FoFCou: FMM=F IPFlag=           0 FMFlag=           0 FMFlg1=           0
         NFxFlg=           0 DoJE=F BraDBF=F KetDBF=F FulRan=T
         wScrn=  0.000000 ICntrl=     600 IOpCl=  2 I1Cent=           0 NGrid=           0
         NMat0=    1 NMatS0=    121 NMatT0=    0 NMatD0=    1 NMtDS0=    0 NMtDT0=    0
 Symmetry not used in FoFCou.
          Solving linear equations separately, MaxMat=       0.
          There are    69 degrees of freedom in the 1st order CPHF.  IDoFFX=5 NUNeed=    69.
 LinEq1:  Iter=  0 NonCon=    69 RMS=2.21D-01 Max=5.72D+00 NDo=    69
 AX will form    69 AO Fock derivatives at one time.
 LinEq1:  Iter=  1 NonCon=    69 RMS=4.88D-02 Max=1.01D+00 NDo=    69
 LinEq1:  Iter=  2 NonCon=    69 RMS=1.19D-02 Max=2.54D-01 NDo=    69
 LinEq1:  Iter=  3 NonCon=    69 RMS=2.44D-03 Max=2.70D-02 NDo=    69
 LinEq1:  Iter=  4 NonCon=    69 RMS=5.54D-04 Max=5.30D-03 NDo=    69
 LinEq1:  Iter=  5 NonCon=    69 RMS=1.02D-04 Max=1.13D-03 NDo=    69
 LinEq1:  Iter=  6 NonCon=    69 RMS=2.08D-05 Max=2.03D-04 NDo=    69
 LinEq1:  Iter=  7 NonCon=    63 RMS=5.12D-06 Max=5.92D-05 NDo=    69
 LinEq1:  Iter=  8 NonCon=    33 RMS=1.19D-06 Max=9.52D-06 NDo=    69
 LinEq1:  Iter=  9 NonCon=     6 RMS=2.37D-07 Max=2.75D-06 NDo=    69
 LinEq1:  Iter= 10 NonCon=     3 RMS=4.98D-08 Max=4.45D-07 NDo=    69
 LinEq1:  Iter= 11 NonCon=     0 RMS=9.16D-09 Max=9.55D-08 NDo=    69
 Linear equations converged to 1.000D-08 1.000D-07 after    11 iterations.
 FullF1:  Do perturbations    1 to     3.
 Isotropic polarizability for W=    0.000000       93.42 Bohr**3.
 End of Minotr F.D. properties file   721 does not exist.
 End of Minotr F.D. properties file   722 does not exist.
 End of Minotr F.D. properties file   788 does not exist.
 Leave Link 1002 at Wed Feb 17 08:27:25 2021, MaxMem=    33554432 cpu:         0.5
 (Enter /cm/shared/apps/Gaussian09/g09/l601.exe)
 Copying SCF densities to generalized density rwf, IOpCl= 1 IROHF=0.

 **********************************************************************

            Population analysis using the SCF density.

 **********************************************************************

 Alpha  occ. eigenvalues --   -1.21205  -1.19101  -1.14389  -1.07755  -1.06295
 Alpha  occ. eigenvalues --   -1.01694  -0.95886  -0.89100  -0.81745  -0.75644
 Alpha  occ. eigenvalues --   -0.72355  -0.68327  -0.65618  -0.63788  -0.61195
 Alpha  occ. eigenvalues --   -0.60033  -0.58420  -0.57106  -0.56739  -0.55631
 Alpha  occ. eigenvalues --   -0.54633  -0.52942  -0.51041  -0.50561  -0.49161
 Alpha  occ. eigenvalues --   -0.47376  -0.46763  -0.45704  -0.40005  -0.39274
 Alpha  occ. eigenvalues --   -0.38275  -0.33829
 Alpha virt. eigenvalues --   -0.00360   0.00659   0.02139   0.08256   0.09604
 Alpha virt. eigenvalues --    0.10957   0.11681   0.12015   0.12391   0.13534
 Alpha virt. eigenvalues --    0.15015   0.15724   0.16579   0.17254   0.17640
 Alpha virt. eigenvalues --    0.17753   0.18142   0.18714   0.19203   0.20469
 Alpha virt. eigenvalues --    0.20761   0.21359   0.21487
  Beta  occ. eigenvalues --   -1.19225  -1.19077  -1.12010  -1.06858  -1.03050
  Beta  occ. eigenvalues --   -0.98992  -0.95276  -0.88572  -0.80846  -0.74403
  Beta  occ. eigenvalues --   -0.71604  -0.67148  -0.64471  -0.62623  -0.60259
  Beta  occ. eigenvalues --   -0.59372  -0.57931  -0.55945  -0.55376  -0.54130
  Beta  occ. eigenvalues --   -0.53917  -0.52196  -0.50842  -0.50486  -0.47722
  Beta  occ. eigenvalues --   -0.47078  -0.45367  -0.45152  -0.39209  -0.36425
  Beta  occ. eigenvalues --   -0.34319
  Beta virt. eigenvalues --   -0.04496  -0.00051   0.01475   0.03552   0.08317
  Beta virt. eigenvalues --    0.10376   0.11439   0.11859   0.12400   0.12567
  Beta virt. eigenvalues --    0.13644   0.15024   0.16815   0.17254   0.17445
  Beta virt. eigenvalues --    0.17718   0.17768   0.18240   0.18776   0.19384
  Beta virt. eigenvalues --    0.20472   0.20776   0.21465   0.21516
          Condensed to atoms (all electrons):
               1          2          3          4          5          6
     1  O    6.367922   0.000000   0.000000   0.000000   0.000000   0.000000
     2  C    0.000000   3.636265   0.000000   0.000000   0.000000   0.000000
     3  C    0.000000   0.000000   4.417801   0.000000   0.000000   0.000000
     4  C    0.000000   0.000000   0.000000   4.209939   0.000000   0.000000
     5  C    0.000000   0.000000   0.000000   0.000000   4.296649   0.000000
     6  C    0.000000   0.000000   0.000000   0.000000   0.000000   4.128777
     7  H    0.000000   0.000000   0.000000   0.000000   0.000000   0.000000
     8  C    0.000000   0.000000   0.000000   0.000000   0.000000   0.000000
     9  O    0.000000   0.000000   0.000000   0.000000   0.000000   0.000000
    10  C    0.000000   0.000000   0.000000   0.000000   0.000000   0.000000
    11  H    0.000000   0.000000   0.000000   0.000000   0.000000   0.000000
    12  H    0.000000   0.000000   0.000000   0.000000   0.000000   0.000000
    13  H    0.000000   0.000000   0.000000   0.000000   0.000000   0.000000
    14  H    0.000000   0.000000   0.000000   0.000000   0.000000   0.000000
    15  H    0.000000   0.000000   0.000000   0.000000   0.000000   0.000000
    16  H    0.000000   0.000000   0.000000   0.000000   0.000000   0.000000
    17  H    0.000000   0.000000   0.000000   0.000000   0.000000   0.000000
    18  H    0.000000   0.000000   0.000000   0.000000   0.000000   0.000000
    19  H    0.000000   0.000000   0.000000   0.000000   0.000000   0.000000
    20  H    0.000000   0.000000   0.000000   0.000000   0.000000   0.000000
    21  O    0.000000   0.000000   0.000000   0.000000   0.000000   0.000000
    22  O    0.000000   0.000000   0.000000   0.000000   0.000000   0.000000
               7          8          9         10         11         12
     1  O    0.000000   0.000000   0.000000   0.000000   0.000000   0.000000
     2  C    0.000000   0.000000   0.000000   0.000000   0.000000   0.000000
     3  C    0.000000   0.000000   0.000000   0.000000   0.000000   0.000000
     4  C    0.000000   0.000000   0.000000   0.000000   0.000000   0.000000
     5  C    0.000000   0.000000   0.000000   0.000000   0.000000   0.000000
     6  C    0.000000   0.000000   0.000000   0.000000   0.000000   0.000000
     7  H    0.844145   0.000000   0.000000   0.000000   0.000000   0.000000
     8  C    0.000000   3.436071   0.000000   0.000000   0.000000   0.000000
     9  O    0.000000   0.000000   6.458473   0.000000   0.000000   0.000000
    10  C    0.000000   0.000000   0.000000   4.641446   0.000000   0.000000
    11  H    0.000000   0.000000   0.000000   0.000000   0.805288   0.000000
    12  H    0.000000   0.000000   0.000000   0.000000   0.000000   0.781265
    13  H    0.000000   0.000000   0.000000   0.000000   0.000000   0.000000
    14  H    0.000000   0.000000   0.000000   0.000000   0.000000   0.000000
    15  H    0.000000   0.000000   0.000000   0.000000   0.000000   0.000000
    16  H    0.000000   0.000000   0.000000   0.000000   0.000000   0.000000
    17  H    0.000000   0.000000   0.000000   0.000000   0.000000   0.000000
    18  H    0.000000   0.000000   0.000000   0.000000   0.000000   0.000000
    19  H    0.000000   0.000000   0.000000   0.000000   0.000000   0.000000
    20  H    0.000000   0.000000   0.000000   0.000000   0.000000   0.000000
    21  O    0.000000   0.000000   0.000000   0.000000   0.000000   0.000000
    22  O    0.000000   0.000000   0.000000   0.000000   0.000000   0.000000
              13         14         15         16         17         18
     1  O    0.000000   0.000000   0.000000   0.000000   0.000000   0.000000
     2  C    0.000000   0.000000   0.000000   0.000000   0.000000   0.000000
     3  C    0.000000   0.000000   0.000000   0.000000   0.000000   0.000000
     4  C    0.000000   0.000000   0.000000   0.000000   0.000000   0.000000
     5  C    0.000000   0.000000   0.000000   0.000000   0.000000   0.000000
     6  C    0.000000   0.000000   0.000000   0.000000   0.000000   0.000000
     7  H    0.000000   0.000000   0.000000   0.000000   0.000000   0.000000
     8  C    0.000000   0.000000   0.000000   0.000000   0.000000   0.000000
     9  O    0.000000   0.000000   0.000000   0.000000   0.000000   0.000000
    10  C    0.000000   0.000000   0.000000   0.000000   0.000000   0.000000
    11  H    0.000000   0.000000   0.000000   0.000000   0.000000   0.000000
    12  H    0.000000   0.000000   0.000000   0.000000   0.000000   0.000000
    13  H    0.821479   0.000000   0.000000   0.000000   0.000000   0.000000
    14  H    0.000000   0.856002   0.000000   0.000000   0.000000   0.000000
    15  H    0.000000   0.000000   0.860685   0.000000   0.000000   0.000000
    16  H    0.000000   0.000000   0.000000   0.853501   0.000000   0.000000
    17  H    0.000000   0.000000   0.000000   0.000000   0.829722   0.000000
    18  H    0.000000   0.000000   0.000000   0.000000   0.000000   0.800227
    19  H    0.000000   0.000000   0.000000   0.000000   0.000000   0.000000
    20  H    0.000000   0.000000   0.000000   0.000000   0.000000   0.000000
    21  O    0.000000   0.000000   0.000000   0.000000   0.000000   0.000000
    22  O    0.000000   0.000000   0.000000   0.000000   0.000000   0.000000
              19         20         21         22
     1  O    0.000000   0.000000   0.000000   0.000000
     2  C    0.000000   0.000000   0.000000   0.000000
     3  C    0.000000   0.000000   0.000000   0.000000
     4  C    0.000000   0.000000   0.000000   0.000000
     5  C    0.000000   0.000000   0.000000   0.000000
     6  C    0.000000   0.000000   0.000000   0.000000
     7  H    0.000000   0.000000   0.000000   0.000000
     8  C    0.000000   0.000000   0.000000   0.000000
     9  O    0.000000   0.000000   0.000000   0.000000
    10  C    0.000000   0.000000   0.000000   0.000000
    11  H    0.000000   0.000000   0.000000   0.000000
    12  H    0.000000   0.000000   0.000000   0.000000
    13  H    0.000000   0.000000   0.000000   0.000000
    14  H    0.000000   0.000000   0.000000   0.000000
    15  H    0.000000   0.000000   0.000000   0.000000
    16  H    0.000000   0.000000   0.000000   0.000000
    17  H    0.000000   0.000000   0.000000   0.000000
    18  H    0.000000   0.000000   0.000000   0.000000
    19  H    0.797388   0.000000   0.000000   0.000000
    20  H    0.000000   0.809259   0.000000   0.000000
    21  O    0.000000   0.000000   6.273354   0.000000
    22  O    0.000000   0.000000   0.000000   6.074343
          Atomic-Atomic Spin Densities.
               1          2          3          4          5          6
     1  O    0.186413   0.000000   0.000000   0.000000   0.000000   0.000000
     2  C    0.000000   0.277766   0.000000   0.000000   0.000000   0.000000
     3  C    0.000000   0.000000   0.064369   0.000000   0.000000   0.000000
     4  C    0.000000   0.000000   0.000000  -0.004143   0.000000   0.000000
     5  C    0.000000   0.000000   0.000000   0.000000   0.005553   0.000000
     6  C    0.000000   0.000000   0.000000   0.000000   0.000000  -0.033806
     7  H    0.000000   0.000000   0.000000   0.000000   0.000000   0.000000
     8  C    0.000000   0.000000   0.000000   0.000000   0.000000   0.000000
     9  O    0.000000   0.000000   0.000000   0.000000   0.000000   0.000000
    10  C    0.000000   0.000000   0.000000   0.000000   0.000000   0.000000
    11  H    0.000000   0.000000   0.000000   0.000000   0.000000   0.000000
    12  H    0.000000   0.000000   0.000000   0.000000   0.000000   0.000000
    13  H    0.000000   0.000000   0.000000   0.000000   0.000000   0.000000
    14  H    0.000000   0.000000   0.000000   0.000000   0.000000   0.000000
    15  H    0.000000   0.000000   0.000000   0.000000   0.000000   0.000000
    16  H    0.000000   0.000000   0.000000   0.000000   0.000000   0.000000
    17  H    0.000000   0.000000   0.000000   0.000000   0.000000   0.000000
    18  H    0.000000   0.000000   0.000000   0.000000   0.000000   0.000000
    19  H    0.000000   0.000000   0.000000   0.000000   0.000000   0.000000
    20  H    0.000000   0.000000   0.000000   0.000000   0.000000   0.000000
    21  O    0.000000   0.000000   0.000000   0.000000   0.000000   0.000000
    22  O    0.000000   0.000000   0.000000   0.000000   0.000000   0.000000
               7          8          9         10         11         12
     1  O    0.000000   0.000000   0.000000   0.000000   0.000000   0.000000
     2  C    0.000000   0.000000   0.000000   0.000000   0.000000   0.000000
     3  C    0.000000   0.000000   0.000000   0.000000   0.000000   0.000000
     4  C    0.000000   0.000000   0.000000   0.000000   0.000000   0.000000
     5  C    0.000000   0.000000   0.000000   0.000000   0.000000   0.000000
     6  C    0.000000   0.000000   0.000000   0.000000   0.000000   0.000000
     7  H    0.004175   0.000000   0.000000   0.000000   0.000000   0.000000
     8  C    0.000000  -0.001090   0.000000   0.000000   0.000000   0.000000
     9  O    0.000000   0.000000  -0.001018   0.000000   0.000000   0.000000
    10  C    0.000000   0.000000   0.000000  -0.002099   0.000000   0.000000
    11  H    0.000000   0.000000   0.000000   0.000000  -0.136138   0.000000
    12  H    0.000000   0.000000   0.000000   0.000000   0.000000  -0.002281
    13  H    0.000000   0.000000   0.000000   0.000000   0.000000   0.000000
    14  H    0.000000   0.000000   0.000000   0.000000   0.000000   0.000000
    15  H    0.000000   0.000000   0.000000   0.000000   0.000000   0.000000
    16  H    0.000000   0.000000   0.000000   0.000000   0.000000   0.000000
    17  H    0.000000   0.000000   0.000000   0.000000   0.000000   0.000000
    18  H    0.000000   0.000000   0.000000   0.000000   0.000000   0.000000
    19  H    0.000000   0.000000   0.000000   0.000000   0.000000   0.000000
    20  H    0.000000   0.000000   0.000000   0.000000   0.000000   0.000000
    21  O    0.000000   0.000000   0.000000   0.000000   0.000000   0.000000
    22  O    0.000000   0.000000   0.000000   0.000000   0.000000   0.000000
              13         14         15         16         17         18
     1  O    0.000000   0.000000   0.000000   0.000000   0.000000   0.000000
     2  C    0.000000   0.000000   0.000000   0.000000   0.000000   0.000000
     3  C    0.000000   0.000000   0.000000   0.000000   0.000000   0.000000
     4  C    0.000000   0.000000   0.000000   0.000000   0.000000   0.000000
     5  C    0.000000   0.000000   0.000000   0.000000   0.000000   0.000000
     6  C    0.000000   0.000000   0.000000   0.000000   0.000000   0.000000
     7  H    0.000000   0.000000   0.000000   0.000000   0.000000   0.000000
     8  C    0.000000   0.000000   0.000000   0.000000   0.000000   0.000000
     9  O    0.000000   0.000000   0.000000   0.000000   0.000000   0.000000
    10  C    0.000000   0.000000   0.000000   0.000000   0.000000   0.000000
    11  H    0.000000   0.000000   0.000000   0.000000   0.000000   0.000000
    12  H    0.000000   0.000000   0.000000   0.000000   0.000000   0.000000
    13  H    0.010156   0.000000   0.000000   0.000000   0.000000   0.000000
    14  H    0.000000   0.000977   0.000000   0.000000   0.000000   0.000000
    15  H    0.000000   0.000000   0.000193   0.000000   0.000000   0.000000
    16  H    0.000000   0.000000   0.000000  -0.000855   0.000000   0.000000
    17  H    0.000000   0.000000   0.000000   0.000000  -0.000292   0.000000
    18  H    0.000000   0.000000   0.000000   0.000000   0.000000   0.000058
    19  H    0.000000   0.000000   0.000000   0.000000   0.000000   0.000000
    20  H    0.000000   0.000000   0.000000   0.000000   0.000000   0.000000
    21  O    0.000000   0.000000   0.000000   0.000000   0.000000   0.000000
    22  O    0.000000   0.000000   0.000000   0.000000   0.000000   0.000000
              19         20         21         22
     1  O    0.000000   0.000000   0.000000   0.000000
     2  C    0.000000   0.000000   0.000000   0.000000
     3  C    0.000000   0.000000   0.000000   0.000000
     4  C    0.000000   0.000000   0.000000   0.000000
     5  C    0.000000   0.000000   0.000000   0.000000
     6  C    0.000000   0.000000   0.000000   0.000000
     7  H    0.000000   0.000000   0.000000   0.000000
     8  C    0.000000   0.000000   0.000000   0.000000
     9  O    0.000000   0.000000   0.000000   0.000000
    10  C    0.000000   0.000000   0.000000   0.000000
    11  H    0.000000   0.000000   0.000000   0.000000
    12  H    0.000000   0.000000   0.000000   0.000000
    13  H    0.000000   0.000000   0.000000   0.000000
    14  H    0.000000   0.000000   0.000000   0.000000
    15  H    0.000000   0.000000   0.000000   0.000000
    16  H    0.000000   0.000000   0.000000   0.000000
    17  H    0.000000   0.000000   0.000000   0.000000
    18  H    0.000000   0.000000   0.000000   0.000000
    19  H   -0.000008   0.000000   0.000000   0.000000
    20  H    0.000000   0.000071   0.000000   0.000000
    21  O    0.000000   0.000000   0.508896   0.000000
    22  O    0.000000   0.000000   0.000000   0.123104
 Mulliken charges and spin densities:
               1          2
     1  O   -0.367922   0.186413
     2  C    0.363735   0.277766
     3  C   -0.417801   0.064369
     4  C   -0.209939  -0.004143
     5  C   -0.296649   0.005553
     6  C   -0.128777  -0.033806
     7  H    0.155855   0.004175
     8  C    0.563929  -0.001090
     9  O   -0.458473  -0.001018
    10  C   -0.641446  -0.002099
    11  H    0.194712  -0.136138
    12  H    0.218735  -0.002281
    13  H    0.178521   0.010156
    14  H    0.143998   0.000977
    15  H    0.139315   0.000193
    16  H    0.146499  -0.000855
    17  H    0.170278  -0.000292
    18  H    0.199773   0.000058
    19  H    0.202612  -0.000008
    20  H    0.190741   0.000071
    21  O   -0.273354   0.508896
    22  O   -0.074343   0.123104
 Sum of Mulliken charges =   0.00000   1.00000
 Mulliken charges and spin densities with hydrogens summed into heavy atoms:
               1          2
     1  O   -0.367922   0.186413
     2  C    0.363735   0.277766
     3  C   -0.020545   0.072243
     4  C    0.073375  -0.002973
     5  C    0.020128   0.004405
     6  C    0.027078  -0.029630
     8  C    0.563929  -0.001090
     9  O   -0.458473  -0.001018
    10  C   -0.048319  -0.001978
    21  O   -0.078642   0.372759
    22  O   -0.074343   0.123104
 APT charges:
               1
     1  O   -1.022046
     2  C    1.788729
     3  C   -0.670659
     4  C   -0.147406
     5  C   -0.303621
     6  C   -0.200162
     7  H    0.121577
     8  C    1.188836
     9  O   -0.715528
    10  C   -1.020571
    11  H   -1.095986
    12  H    0.182804
    13  H    0.205698
    14  H    0.128792
    15  H    0.128043
    16  H    0.152144
    17  H    0.150201
    18  H    0.256798
    19  H    0.241372
    20  H    0.237451
    21  O    0.693500
    22  O   -0.299850
 Sum of APT charges =   0.00012
 APT charges with hydrogens summed into heavy atoms:
               1
     1  O   -1.022046
     2  C    1.788729
     3  C   -0.282157
     4  C    0.109429
     5  C   -0.001276
     6  C   -0.078585
     8  C    1.188836
     9  O   -0.715528
    10  C   -0.284950
    21  O   -0.402486
    22  O   -0.299850
 Charge=              0.0000 electrons
 Dipole moment (field-independent basis, Debye):
    X=              4.5063    Y=             -1.1036    Z=             -2.7469  Tot=              5.3916
 N-N= 4.027036935116D+02 E-N=-7.251464241716D+02  KE=-3.754412092615D+01
  Exact polarizability:  55.500  -2.398 115.074  -7.572  42.331 109.695
 Approx polarizability:  40.946  -4.516  64.719  -4.180  14.683  67.997
 Leave Link  601 at Wed Feb 17 08:27:25 2021, MaxMem=    33554432 cpu:         0.0
 (Enter /cm/shared/apps/Gaussian09/g09/l701.exe)
 Compute integral second derivatives.
 ... and contract with generalized density number  0.
 Leave Link  701 at Wed Feb 17 08:27:25 2021, MaxMem=    33554432 cpu:         0.1
 (Enter /cm/shared/apps/Gaussian09/g09/l702.exe)
 L702 exits ... SP integral derivatives will be done elsewhere.
 Leave Link  702 at Wed Feb 17 08:27:25 2021, MaxMem=    33554432 cpu:         0.0
 (Enter /cm/shared/apps/Gaussian09/g09/l703.exe)
 Compute integral second derivatives, UseDBF=F ICtDFT=           0.
 Integral derivatives from FoFJK, PRISM(SPDF).
 Calling FoFJK, ICntrl=    100127 FMM=F ISym2X=0 I1Cent= 0 IOpClX= 1 NMat=1 NMatS=1 NMatT=0.
 FoFJK:  IHMeth=40 ICntrl=  100127 DoSepK=F KAlg= 0 I1Cent=   0 FoldK=F
 IRaf=         0 NMat=   1 IRICut=       1 DoRegI=T DoRafI=F ISym2E= 0.
 FoFCou: FMM=F IPFlag=           0 FMFlag=      100000 FMFlg1=         800
         NFxFlg=           0 DoJE=F BraDBF=F KetDBF=F FulRan=T
         wScrn=  0.000000 ICntrl=  100127 IOpCl=  1 I1Cent=           0 NGrid=           0
         NMat0=    1 NMatS0=      1 NMatT0=    0 NMatD0=    1 NMtDS0=    0 NMtDT0=    0
 Symmetry not used in FoFCou.
 Leave Link  703 at Wed Feb 17 08:27:25 2021, MaxMem=    33554432 cpu:         0.0
 (Enter /cm/shared/apps/Gaussian09/g09/l716.exe)
 Dipole        = 1.77290593D+00-4.34186148D-01-1.08070654D+00
 Polarizability= 5.55004380D+01-2.39832111D+00 1.15073751D+02
                -7.57155609D+00 4.23307311D+01 1.09694856D+02
 HyperPolar    = 3.63955970D+01-1.35952697D+01 2.59269079D+00
                -7.56186252D+02-1.86810600D+01-1.86512640D+00
                -2.44043525D+02 6.66326724D+01 1.16656782D+02
                 3.39223505D+02
 -------------------------------------------------------------------
 Center     Atomic                   Forces (Hartrees/Bohr)
 Number     Number              X              Y              Z
 -------------------------------------------------------------------
      1        8          -0.000000039    0.000000211    0.000000422
      2        6          -0.000000196   -0.000000248    0.000000480
      3        6          -0.000000102    0.000000008   -0.000000512
      4        6           0.000000025   -0.000000275   -0.000000231
      5        6           0.000000479    0.000000168    0.000000120
      6        6          -0.000000186    0.000000209   -0.000000405
      7        1           0.000000083   -0.000000497    0.000000020
      8        6           0.000000394   -0.000000427    0.000000120
      9        8          -0.000000669    0.000000699   -0.000000120
     10        6           0.000000281    0.000000171   -0.000000104
     11        1          -0.000000027    0.000000142    0.000000098
     12        1          -0.000000205   -0.000000019   -0.000000201
     13        1          -0.000000053    0.000000421   -0.000000004
     14        1           0.000000033    0.000000057   -0.000000207
     15        1           0.000000443    0.000000218    0.000000370
     16        1           0.000000161   -0.000000085   -0.000000007
     17        1           0.000000013   -0.000000015    0.000000190
     18        1          -0.000000126   -0.000000438   -0.000000093
     19        1          -0.000000006    0.000000097   -0.000000250
     20        1           0.000000170   -0.000000037    0.000000065
     21        8          -0.000000204   -0.000000228    0.000000234
     22        8          -0.000000270   -0.000000132    0.000000016
 -------------------------------------------------------------------
 Cartesian Forces:  Max     0.000000699 RMS     0.000000261
 Leave Link  716 at Wed Feb 17 08:27:25 2021, MaxMem=    33554432 cpu:         0.0
 (Enter /cm/shared/apps/Gaussian09/g09/l103.exe)

 GradGradGradGradGradGradGradGradGradGradGradGradGradGradGradGradGradGrad
 Berny optimization.
 Search for a saddle point.
 Step number   1 out of a maximum of  100
 All quantities printed in internal units (Hartrees-Bohrs-Radians)
 Swapping is turned off.
 Second derivative matrix not updated -- analytic derivatives used.
 ITU=  0
     Eigenvalues ---   -0.56036   0.00021   0.00031   0.00065   0.00202
     Eigenvalues ---    0.00297   0.00479   0.00788   0.00943   0.01142
     Eigenvalues ---    0.01519   0.02370   0.02537   0.03546   0.03907
     Eigenvalues ---    0.04118   0.04250   0.04725   0.04876   0.05125
     Eigenvalues ---    0.05340   0.05539   0.05779   0.05892   0.06844
     Eigenvalues ---    0.07192   0.07859   0.08323   0.08834   0.09689
     Eigenvalues ---    0.11005   0.11828   0.12375   0.13577   0.13823
     Eigenvalues ---    0.16490   0.18815   0.20764   0.21664   0.25554
     Eigenvalues ---    0.27140   0.33876   0.37612   0.44415   0.46357
     Eigenvalues ---    0.50941   0.54682   0.56274   0.56938   0.58825
     Eigenvalues ---    0.60203   0.60776   0.61437   0.62805   0.66473
     Eigenvalues ---    0.68202   0.70631   0.73172   1.66742   1.80733
 Eigenvectors required to have negative eigenvalues:
                          Y11       Z21       Y2        Z11       Z22
   1                    0.72581  -0.36808  -0.34909   0.25216   0.22813
                          Y21       Y1        X11       X2        X1
   1                   -0.21260   0.12177   0.10705  -0.08939   0.05316
 RFO step:  Lambda0=8.465450563D-14 Lambda= 0.00000000D+00.
 Linear search not attempted -- option 19 set.
 TrRot= -0.000001 -0.000001  0.000000  0.000000  0.000000  0.000000
 Variable       Old X    -DE/DX   Delta X   Delta X   Delta X     New X
                                 (Linear)    (Quad)   (Total)
    X1       -2.18308   0.00000   0.00000   0.00001   0.00001  -2.18307
    Y1        3.42896   0.00000   0.00000   0.00001   0.00000   3.42897
    Z1        6.18332   0.00000   0.00000   0.00000   0.00000   6.18332
    X2       -1.96833   0.00000   0.00000   0.00000   0.00000  -1.96833
    Y2        2.34347   0.00000   0.00000   0.00000   0.00000   2.34347
    Z2        4.23178   0.00000   0.00000   0.00000   0.00000   4.23178
    X3       -1.14897   0.00000   0.00000   0.00000   0.00000  -1.14897
    Y3        3.19834   0.00000   0.00000   0.00000   0.00000   3.19834
    Z3        1.67869   0.00000   0.00000   0.00000   0.00000   1.67868
    X4        1.49982   0.00000   0.00000   0.00000   0.00000   1.49982
    Y4        2.22862   0.00000   0.00000   0.00000  -0.00001   2.22861
    Z4        1.01737   0.00000   0.00000   0.00000   0.00000   1.01737
    X5        1.77948   0.00000   0.00000   0.00000   0.00000   1.77948
    Y5       -0.65448   0.00000   0.00000  -0.00001  -0.00001  -0.65448
    Z5        1.14779   0.00000   0.00000   0.00000   0.00000   1.14779
    X6       -0.13747   0.00000   0.00000   0.00000   0.00000  -0.13747
    Y6       -2.16815   0.00000   0.00000   0.00000   0.00000  -2.16815
    Z6       -0.38656   0.00000   0.00000   0.00000   0.00000  -0.38656
    X7        0.35688   0.00000   0.00000   0.00000   0.00000   0.35687
    Y7       -4.20818   0.00000   0.00000  -0.00001  -0.00001  -4.20819
    Z7       -0.38215   0.00000   0.00000   0.00000   0.00000  -0.38216
    X8       -0.50777   0.00000   0.00000   0.00000  -0.00001  -0.50777
    Y8       -1.14051   0.00000   0.00000   0.00000   0.00000  -1.14051
    Z8       -3.06823   0.00000   0.00000   0.00000   0.00000  -3.06823
    X9       -2.00030   0.00000   0.00000  -0.00002  -0.00002  -2.00032
    Y9        0.51661   0.00000   0.00000  -0.00001  -0.00001   0.51660
    Z9       -3.54755   0.00000   0.00000   0.00000   0.00000  -3.54755
   X10        1.13605   0.00000   0.00000   0.00001   0.00000   1.13606
   Y10       -2.35231   0.00000   0.00000   0.00001   0.00001  -2.35230
   Z10       -5.03160   0.00000   0.00000   0.00000   0.00000  -5.03160
   X11       -2.55816   0.00000   0.00000  -0.00001  -0.00001  -2.55817
   Y11       -0.09111   0.00000   0.00000   0.00001   0.00000  -0.09110
   Z11        4.16981   0.00000   0.00000   0.00000   0.00000   4.16981
   X12       -2.52838   0.00000   0.00000   0.00000   0.00000  -2.52838
   Y12        2.48766   0.00000   0.00000   0.00000   0.00000   2.48766
   Z12        0.22579   0.00000   0.00000   0.00000   0.00000   0.22578
   X13       -1.21298   0.00000   0.00000   0.00001   0.00001  -1.21297
   Y13        5.29117   0.00000   0.00000   0.00000   0.00000   5.29117
   Z13        1.54918   0.00000   0.00000  -0.00001  -0.00001   1.54918
   X14        1.97853   0.00000   0.00000   0.00001   0.00000   1.97853
   Y14        2.90647   0.00000   0.00000  -0.00001  -0.00001   2.90646
   Z14       -0.91011   0.00000   0.00000   0.00000   0.00000  -0.91012
   X15        2.91160   0.00000   0.00000   0.00000   0.00000   2.91160
   Y15        3.10614   0.00000   0.00000  -0.00001  -0.00001   3.10614
   Z15        2.29621   0.00000   0.00000   0.00000   0.00000   2.29621
   X16        3.71804   0.00000   0.00000   0.00000   0.00000   3.71804
   Y16       -1.18413   0.00000   0.00000  -0.00001  -0.00001  -1.18414
   Z16        0.55499   0.00000   0.00000   0.00000   0.00000   0.55499
   X17        1.61305   0.00000   0.00000   0.00000   0.00000   1.61304
   Y17       -1.29061   0.00000   0.00000   0.00000   0.00000  -1.29061
   Z17        3.15082   0.00000   0.00000   0.00000   0.00000   3.15082
   X18        0.49640   0.00000   0.00000   0.00003   0.00002   0.49642
   Y18       -4.28322   0.00000   0.00000   0.00000   0.00000  -4.28322
   Z18       -5.46204   0.00000   0.00000   0.00000   0.00000  -5.46204
   X19        1.06781   0.00000   0.00000   0.00000  -0.00001   1.06781
   Y19       -1.29379   0.00000   0.00000   0.00001   0.00001  -1.29378
   Z19       -6.82344   0.00000   0.00000   0.00000   0.00000  -6.82344
   X20        3.12261   0.00000   0.00000   0.00001   0.00001   3.12261
   Y20       -2.47396   0.00000   0.00000   0.00003   0.00003  -2.47392
   Z20       -4.45329   0.00000   0.00000   0.00000   0.00000  -4.45329
   X21       -2.70378   0.00000   0.00000   0.00000   0.00000  -2.70378
   Y21       -2.34210   0.00000   0.00000   0.00000   0.00000  -2.34210
   Z21        3.15122   0.00000   0.00000   0.00001   0.00001   3.15122
   X22       -2.73104   0.00000   0.00000   0.00000   0.00000  -2.73105
   Y22       -2.02491   0.00000   0.00000  -0.00001  -0.00001  -2.02492
   Z22        0.70802   0.00000   0.00000   0.00000   0.00000   0.70802
         Item               Value     Threshold  Converged?
 Maximum Force            0.000001     0.000450     YES
 RMS     Force            0.000000     0.000300     YES
 Maximum Displacement     0.000031     0.001800     YES
 RMS     Displacement     0.000007     0.001200     YES
 Predicted change in Energy=-7.094576D-12
 Optimization completed.
    -- Stationary point found.
 Lowest energy point so far.  Saving SCF results.
 GradGradGradGradGradGradGradGradGradGradGradGradGradGradGradGradGradGrad

 Largest change from initial coordinates is atom    0       0.000 Angstoms.
 Leave Link  103 at Wed Feb 17 08:27:25 2021, MaxMem=    33554432 cpu:         0.0
 (Enter /cm/shared/apps/Gaussian09/g09/l202.exe)
                          Input orientation:                          
 ---------------------------------------------------------------------
 Center     Atomic      Atomic             Coordinates (Angstroms)
 Number     Number       Type             X           Y           Z
 ---------------------------------------------------------------------
      1          8           0       -1.155237    1.814529    3.272074
      2          6           0       -1.041595    1.240109    2.239362
      3          6           0       -0.608009    1.692488    0.888322
      4          6           0        0.793670    1.179334    0.538369
      5          6           0        0.941661   -0.346334    0.607385
      6          6           0       -0.072746   -1.147333   -0.204559
      7          1           0        0.188852   -2.226874   -0.202227
      8          6           0       -0.268698   -0.603530   -1.623639
      9          8           0       -1.058515    0.273379   -1.877283
     10          6           0        0.601173   -1.244790   -2.662608
     11          1           0       -1.353722   -0.048212    2.206570
     12          1           0       -1.337959    1.316415    0.119482
     13          1           0       -0.641881    2.799968    0.819793
     14          1           0        1.046993    1.538037   -0.481612
     15          1           0        1.540750    1.643700    1.215103
     16          1           0        1.967501   -0.626613    0.293686
     17          1           0        0.853588   -0.682960    1.667341
     18          1           0        0.262682   -2.266582   -2.890389
     19          1           0        0.565063   -0.684646   -3.610808
     20          1           0        1.652412   -1.309161   -2.356580
     21          8           0       -1.430778   -1.239385    1.667552
     22          8           0       -1.445205   -1.071538    0.374666
 ---------------------------------------------------------------------
                    Distance matrix (angstroms):
                    1          2          3          4          5
     1  O    0.000000
     2  C    1.187168   0.000000
     3  C    2.448801   1.489279   0.000000
     4  C    3.416849   2.503052   1.533133   0.000000
     5  C    4.020806   3.018850   2.576276   1.534382   0.000000
     6  C    4.693761   3.551239   3.089576   2.591524   1.526392
     7  H    5.496388   4.415351   4.145562   3.537872   2.181427
     8  C    5.531814   4.349615   3.420055   2.996916   2.551193
     9  O    5.375907   4.228666   3.140923   3.175959   3.249357
    10  C    6.903974   5.736089   4.764329   4.019911   3.408227
    11  H    2.155110   1.325998   2.307358   2.983464   2.813370
    12  H    3.196927   2.141856   1.124888   2.176718   2.863468
    13  H    2.692268   2.146650   1.110115   2.183223   3.528730
    14  H    4.360782   3.443060   2.153974   1.110496   2.178959
    15  H    3.395388   2.807222   2.174013   1.109835   2.165286
    16  H    4.957970   4.040416   3.516401   2.167762   1.108743
    17  H    3.584410   2.759913   2.895840   2.178602   1.115608
    18  H    7.526082   6.349202   5.541750   4.890058   4.047566
    19  H    7.521926   6.364788   5.221976   4.554377   4.248462
    20  H    7.022968   5.905856   4.964755   3.912899   3.196450
    21  O    3.460752   2.574164   3.143251   3.474683   2.747719
    22  O    4.099809   2.997283   2.933356   3.178960   2.505436
                    6          7          8          9         10
     6  C    0.000000
     7  H    1.110787   0.000000
     8  C    1.532288   2.205677   0.000000
     9  O    2.405861   3.257760   1.207110   0.000000
    10  C    2.550621   2.681039   1.499115   2.382464   0.000000
    11  H    2.943214   3.595609   4.019472   4.107119   5.381664
    12  H    2.788516   3.871633   2.804992   2.270040   4.249709
    13  H    4.117572   5.196516   4.206355   3.719066   5.480179
    14  H    2.922633   3.871565   2.760721   2.824964   3.563653
    15  H    3.522595   4.337948   4.047543   4.265772   4.925731
    16  H    2.163794   2.443431   2.945718   3.831431   3.314916
    17  H    2.139567   2.514126   3.477986   4.139454   4.373537
    18  H    2.928978   2.689469   2.157026   3.036996   1.100236
    19  H    3.496200   3.760110   2.156520   2.561040   1.101884
    20  H    2.762888   2.761420   2.173886   3.175419   1.096768
    21  O    2.314633   2.663533   3.547771   3.872065   4.783214
    22  O    1.491607   2.082726   2.365676   2.651340   3.666430
                   11         12         13         14         15
    11  H    0.000000
    12  H    2.493670   0.000000
    13  H    3.246844   1.782103   0.000000
    14  H    3.937758   2.469499   2.477584   0.000000
    15  H    3.496218   3.097494   2.501420   1.770255   0.000000
    16  H    3.876106   3.838199   4.339023   2.476718   2.487056
    17  H    2.359214   3.346079   3.884012   3.096487   2.467804
    18  H    5.789034   4.945629   6.344574   4.570829   5.811956
    19  H    6.158626   4.641207   5.764501   3.868390   5.446336
    20  H    5.607956   4.686881   5.677858   3.462452   4.635599
    21  O    1.309722   2.989523   4.202074   4.297945   4.164957
    22  O    2.100342   2.403943   3.978948   3.708658   4.122472
                   16         17         18         19         20
    16  H    0.000000
    17  H    1.769436   0.000000
    18  H    3.966641   4.861063   0.000000
    19  H    4.149129   5.286029   1.764358   0.000000
    20  H    2.754825   4.149962   1.770016   1.773537   0.000000
    21  O    3.716355   2.351156   4.969685   5.670291   5.069967
    22  O    3.442540   2.665793   3.873705   4.480498   4.136593
                   21         22
    21  O    0.000000
    22  O    1.303816   0.000000
 Symmetry turned off by external request.
 Stoichiometry    C7H11O4(2)
 Framework group  C1[X(C7H11O4)]
 Deg. of freedom    60
 Full point group                 C1      NOp   1
 Rotational constants (GHZ):      1.9525472      0.7330953      0.6644961
 Leave Link  202 at Wed Feb 17 08:27:25 2021, MaxMem=    33554432 cpu:         0.0
 (Enter /cm/shared/apps/Gaussian09/g09/l716.exe)
 Dipole        = 1.77290593D+00-4.34186148D-01-1.08070654D+00
 Polarizability= 5.55004380D+01-2.39832111D+00 1.15073751D+02
                -7.57155609D+00 4.23307311D+01 1.09694856D+02
 HyperPolar    = 3.63955970D+01-1.35952697D+01 2.59269079D+00
                -7.56186252D+02-1.86810600D+01-1.86512640D+00
                -2.44043525D+02 6.66326724D+01 1.16656782D+02
                 3.39223505D+02
 Full mass-weighted force constant matrix:
 Low frequencies ----2660.2216   -1.8997   -0.4372   -0.1469    1.1472    2.0345
 Low frequencies ---    2.2449   35.3968   46.4362
 ******    1 imaginary frequencies (negative Signs) ****** 
 Diagonal vibrational polarizability:
      102.3571914      82.3370121      53.4049486
 Harmonic frequencies (cm**-1), IR intensities (KM/Mole), Raman scattering
 activities (A**4/AMU), depolarization ratios for plane and unpolarized
 incident light, reduced masses (AMU), force constants (mDyne/A),
 and normal coordinates:
                      1                      2                      3
                      A                      A                      A
 Frequencies --  -2660.2216                35.3967                46.4361
 Red. masses --      1.1572                 3.8474                 6.2981
 Frc consts  --      4.8248                 0.0028                 0.0080
 IR Inten    --  15608.7439                 4.0098                 1.6931
  Atom  AN      X      Y      Z        X      Y      Z        X      Y      Z
     1   8     0.00   0.02   0.01    -0.02  -0.06   0.06     0.34  -0.12   0.16
     2   6    -0.02  -0.07  -0.01    -0.03  -0.03   0.05     0.03  -0.03   0.07
     3   6     0.00   0.01   0.00    -0.08   0.02   0.05    -0.15   0.01   0.03
     4   6     0.00   0.00   0.00    -0.06   0.09   0.00    -0.14   0.09  -0.07
     5   6     0.00   0.00   0.00     0.02   0.10  -0.01    -0.06   0.10  -0.01
     6   6     0.01   0.00   0.00     0.04   0.04   0.00    -0.04   0.04   0.02
     7   1     0.00   0.00   0.00     0.08   0.05   0.05    -0.05   0.04   0.12
     8   6     0.00   0.00   0.00     0.04  -0.01  -0.02     0.04  -0.06  -0.03
     9   8     0.00   0.00   0.00     0.21   0.14  -0.02    -0.02  -0.16  -0.15
    10   6     0.00   0.00   0.00    -0.18  -0.28  -0.05     0.21  -0.04   0.10
    11   1     0.14   0.93   0.31     0.01  -0.03   0.02    -0.15   0.01   0.01
    12   1     0.01   0.02   0.01    -0.07   0.00   0.05    -0.17  -0.04   0.09
    13   1     0.01   0.00  -0.01    -0.14   0.02   0.07    -0.23   0.01   0.04
    14   1     0.00   0.00   0.00    -0.12   0.11  -0.01    -0.24   0.07  -0.10
    15   1     0.00   0.00   0.00    -0.07   0.13  -0.02    -0.11   0.17  -0.14
    16   1     0.00   0.00   0.00     0.02   0.16  -0.04    -0.05   0.14  -0.01
    17   1     0.00   0.00   0.00     0.06   0.09  -0.01    -0.03   0.14   0.00
    18   1     0.00   0.00   0.00    -0.40  -0.23   0.08     0.34  -0.10   0.14
    19   1     0.00   0.00   0.00    -0.16  -0.36  -0.09     0.24  -0.11   0.05
    20   1     0.00   0.00   0.00    -0.16  -0.46  -0.14     0.19   0.09   0.20
    21   8     0.00  -0.02  -0.06     0.02  -0.02  -0.03    -0.15   0.04  -0.06
    22   8     0.00  -0.01   0.04     0.04   0.03  -0.02    -0.07   0.12  -0.06
                      4                      5                      6
                      A                      A                      A
 Frequencies --     84.1233                97.9747               152.2651
 Red. masses --      1.0281                 5.5618                 4.8708
 Frc consts  --      0.0043                 0.0315                 0.0665
 IR Inten    --      0.7774                 6.1877                 3.4171
  Atom  AN      X      Y      Z        X      Y      Z        X      Y      Z
     1   8     0.02   0.00   0.00     0.26  -0.02  -0.07     0.01   0.11  -0.03
     2   6     0.00   0.00   0.00    -0.11   0.05  -0.15     0.05  -0.03   0.05
     3   6    -0.01   0.00  -0.01    -0.09   0.02  -0.16    -0.12  -0.15  -0.04
     4   6    -0.01   0.01  -0.01    -0.06   0.00  -0.02    -0.11  -0.09  -0.11
     5   6     0.00   0.01   0.00    -0.09   0.01   0.13    -0.05  -0.09  -0.12
     6   6     0.00   0.00   0.00     0.03  -0.05   0.04    -0.16  -0.04  -0.04
     7   1     0.01   0.00   0.00     0.15  -0.02  -0.04    -0.23  -0.06  -0.07
     8   6     0.00   0.00   0.00     0.03   0.06   0.08    -0.01   0.05  -0.02
     9   8    -0.01  -0.01   0.00     0.10   0.15   0.15     0.17   0.19  -0.09
    10   6     0.01   0.01   0.00    -0.04   0.08   0.01     0.12   0.05   0.08
    11   1    -0.01   0.00   0.00    -0.46   0.13  -0.22     0.24  -0.08   0.21
    12   1    -0.01  -0.01   0.00    -0.04   0.00  -0.19    -0.17  -0.27   0.07
    13   1    -0.02   0.00  -0.01    -0.09   0.02  -0.19    -0.20  -0.16  -0.16
    14   1    -0.01   0.00  -0.01     0.01  -0.08  -0.03    -0.19  -0.08  -0.12
    15   1    -0.01   0.01  -0.01    -0.12   0.06   0.00    -0.09  -0.06  -0.15
    16   1     0.00   0.01   0.00    -0.04  -0.03   0.31    -0.09  -0.07  -0.23
    17   1     0.00   0.01   0.00    -0.25   0.08   0.14     0.06  -0.10  -0.11
    18   1    -0.37   0.22  -0.40     0.00   0.05   0.07     0.20   0.02   0.08
    19   1     0.44   0.32   0.17    -0.16   0.06   0.00     0.19   0.02   0.06
    20   1    -0.09  -0.52   0.21    -0.01   0.16  -0.09     0.09   0.12   0.19
    21   8     0.01   0.00   0.01    -0.04   0.00   0.01     0.12  -0.05   0.14
    22   8     0.00  -0.01   0.00    -0.01  -0.28  -0.02    -0.08   0.02   0.13
                      7                      8                      9
                      A                      A                      A
 Frequencies --    173.6971               185.5078               227.3994
 Red. masses --      2.9078                 4.4950                 4.6772
 Frc consts  --      0.0517                 0.0911                 0.1425
 IR Inten    --      2.7383                 5.4343                 0.3990
  Atom  AN      X      Y      Z        X      Y      Z        X      Y      Z
     1   8    -0.08  -0.08   0.05     0.06   0.06   0.08    -0.03   0.17   0.14
     2   6     0.07   0.03   0.00    -0.12   0.10   0.03     0.00   0.12   0.17
     3   6     0.12   0.20   0.07    -0.01   0.05   0.05    -0.06   0.00   0.11
     4   6     0.00   0.03  -0.16     0.01  -0.02   0.24    -0.14  -0.10  -0.07
     5   6    -0.09   0.03  -0.01    -0.07  -0.04   0.01    -0.05  -0.09   0.02
     6   6    -0.06  -0.02  -0.01    -0.04   0.04  -0.10     0.07  -0.15  -0.06
     7   1     0.02   0.00  -0.02     0.01   0.04  -0.17     0.04  -0.14  -0.03
     8   6    -0.02   0.00   0.00    -0.03   0.01  -0.11     0.09  -0.10  -0.04
     9   8     0.03   0.02  -0.05    -0.03  -0.03  -0.24     0.08  -0.07   0.10
    10   6     0.05  -0.02   0.05     0.01  -0.06  -0.04     0.01   0.06  -0.21
    11   1     0.09   0.03  -0.11    -0.32   0.15  -0.08     0.00   0.09   0.02
    12   1     0.02   0.46   0.05     0.07   0.07  -0.01    -0.16  -0.02   0.21
    13   1     0.32   0.22   0.29     0.05   0.05   0.02     0.01   0.00   0.03
    14   1    -0.18  -0.10  -0.25     0.24   0.13   0.35    -0.33  -0.19  -0.16
    15   1     0.18   0.05  -0.37    -0.08  -0.19   0.47    -0.01  -0.02  -0.26
    16   1    -0.08  -0.04   0.09    -0.06  -0.02   0.02     0.00  -0.04   0.16
    17   1    -0.17   0.13   0.02    -0.13  -0.17  -0.03    -0.16  -0.05   0.03
    18   1     0.07  -0.02   0.05     0.01  -0.07   0.00     0.04   0.07  -0.31
    19   1     0.11  -0.03   0.04     0.07  -0.12  -0.08    -0.14   0.19  -0.13
    20   1     0.03   0.00   0.12     0.00  -0.06   0.01     0.05   0.08  -0.34
    21   8     0.03  -0.02   0.03     0.18   0.06   0.05     0.01   0.13  -0.05
    22   8    -0.05  -0.15   0.02    -0.01  -0.15   0.02     0.05  -0.03  -0.07
                     10                     11                     12
                      A                      A                      A
 Frequencies --    292.8149               315.9560               350.0536
 Red. masses --      2.4001                 5.7430                 3.3489
 Frc consts  --      0.1212                 0.3378                 0.2418
 IR Inten    --      2.2661                 9.1687                 1.8515
  Atom  AN      X      Y      Z        X      Y      Z        X      Y      Z
     1   8     0.01   0.00  -0.04     0.00   0.26  -0.01     0.02   0.01  -0.06
     2   6     0.06  -0.04  -0.01     0.22  -0.01   0.16     0.08  -0.02  -0.03
     3   6    -0.01  -0.03  -0.03     0.02  -0.10   0.07    -0.01   0.10  -0.02
     4   6    -0.01  -0.03  -0.03     0.05   0.08   0.03     0.01   0.10   0.10
     5   6    -0.10  -0.02   0.23     0.02   0.08   0.02    -0.08   0.07   0.00
     6   6     0.02   0.07  -0.01     0.05   0.06  -0.01    -0.07  -0.02   0.05
     7   1     0.00   0.06  -0.05     0.22   0.10  -0.09    -0.06  -0.01   0.16
     8   6     0.02   0.05  -0.02    -0.03   0.08  -0.01     0.05  -0.13  -0.01
     9   8    -0.04  -0.01  -0.08    -0.06   0.03  -0.09     0.12  -0.07  -0.02
    10   6    -0.03   0.00  -0.03    -0.02  -0.02   0.07     0.00   0.07  -0.20
    11   1     0.20  -0.09   0.08     0.47  -0.21   0.04     0.35  -0.11   0.07
    12   1    -0.03  -0.05   0.00     0.00  -0.34   0.20     0.03   0.12  -0.06
    13   1    -0.04  -0.03  -0.04    -0.21  -0.12  -0.09    -0.03   0.10   0.05
    14   1    -0.06  -0.21  -0.10     0.03   0.11   0.04     0.19   0.19   0.18
    15   1     0.02   0.08  -0.14     0.04   0.10   0.03    -0.06  -0.02   0.27
    16   1    -0.03  -0.16   0.62     0.02   0.06   0.05    -0.09   0.08  -0.06
    17   1    -0.48   0.09   0.24     0.00   0.08   0.02    -0.01   0.05   0.00
    18   1    -0.09   0.01   0.01    -0.06  -0.02   0.14     0.06   0.09  -0.37
    19   1    -0.06  -0.03  -0.05     0.05  -0.10   0.02    -0.19   0.27  -0.08
    20   1    -0.02  -0.03  -0.08    -0.03  -0.05   0.11     0.05   0.12  -0.36
    21   8     0.09  -0.06  -0.01    -0.20  -0.15  -0.09    -0.07  -0.13   0.08
    22   8     0.02   0.10   0.00    -0.01  -0.26  -0.10    -0.09   0.01   0.09
                     13                     14                     15
                      A                      A                      A
 Frequencies --    372.0862               414.3332               469.5489
 Red. masses --      4.1637                 2.9553                 3.3255
 Frc consts  --      0.3396                 0.2989                 0.4320
 IR Inten    --      2.9793                 6.2974                 7.8702
  Atom  AN      X      Y      Z        X      Y      Z        X      Y      Z
     1   8     0.04   0.06  -0.04     0.09   0.15  -0.08     0.00   0.05  -0.01
     2   6     0.07   0.03  -0.01    -0.19  -0.08   0.02    -0.08  -0.08   0.05
     3   6    -0.06   0.15  -0.01     0.03   0.03   0.12     0.10  -0.15   0.07
     4   6    -0.09   0.00   0.11    -0.04  -0.04  -0.02     0.15   0.12  -0.06
     5   6    -0.11  -0.02  -0.04     0.06  -0.02   0.00    -0.09   0.11  -0.03
     6   6    -0.05  -0.08  -0.07     0.02   0.02   0.02    -0.10   0.05  -0.02
     7   1    -0.06  -0.08   0.00    -0.01   0.01   0.00    -0.07   0.05   0.13
     8   6    -0.02  -0.03  -0.01     0.01   0.02   0.01     0.00  -0.07  -0.04
     9   8    -0.04   0.02   0.21     0.00   0.00  -0.04     0.02  -0.01   0.12
    10   6     0.05  -0.08   0.10    -0.01   0.01   0.00     0.04  -0.03  -0.04
    11   1     0.47  -0.13  -0.05    -0.46  -0.13  -0.01    -0.54   0.03  -0.01
    12   1    -0.09   0.26  -0.03     0.00   0.42  -0.02     0.19  -0.33   0.05
    13   1     0.04   0.15   0.08     0.29   0.08   0.48    -0.14  -0.16   0.03
    14   1     0.10   0.11   0.19    -0.21  -0.09  -0.09     0.07   0.17  -0.06
    15   1    -0.15  -0.15   0.28     0.07   0.01  -0.17     0.20   0.09  -0.09
    16   1    -0.10   0.05  -0.07     0.05   0.03  -0.08    -0.11  -0.10   0.13
    17   1    -0.08  -0.11  -0.07     0.13  -0.03  -0.01    -0.29   0.23   0.00
    18   1     0.09  -0.10   0.16    -0.03   0.01   0.00     0.11  -0.04  -0.08
    19   1     0.20  -0.16   0.05    -0.03   0.01  -0.01     0.07   0.00  -0.02
    20   1     0.01  -0.06   0.26     0.00   0.00  -0.03     0.03   0.01   0.02
    21   8     0.16  -0.12  -0.14    -0.02  -0.18   0.01     0.11   0.01  -0.02
    22   8    -0.03   0.07  -0.13     0.04   0.06   0.01    -0.13   0.00  -0.05
                     16                     17                     18
                      A                      A                      A
 Frequencies --    541.7458               554.0624               569.5780
 Red. masses --      3.3214                 5.1594                 4.1810
 Frc consts  --      0.5743                 0.9332                 0.7992
[...]
 00313158,0.00024697,-0.00017788,0.00020115,0.00045951,-0.00091180,-0.0
 0032459,0.00001218,-0.00005139,-0.00001610,0.00238442,-0.00260141,-0.0
 0141827,-0.00128438,0.00083283,0.00077597,-0.00049676,0.00030823,0.000
 41705,-0.00134161,-0.00649617,-0.00099441,0.04035422,0.05785240,0.0017
 0991,-0.00063657,-0.00154129,-0.01058005,0.00221830,-0.04054009,-0.075
 69799,-0.03868955,-0.10746143,-0.00497604,0.00132895,0.00398579,0.0003
 6025,0.00021604,-0.00036669,-0.00076598,0.00045524,-0.00016881,0.00003
 702,0.00003445,-0.00009299,0.00433214,-0.00539090,0.00121131,-0.002628
 52,0.00410970,-0.00010154,-0.00107827,0.00091587,-0.00006222,-0.000419
 19,-0.00555684,-0.00203989,0.09140051,0.04387895,0.14437740,-0.0002069
 6,-0.00024136,-0.00045371,0.00358996,-0.00607840,0.00464545,-0.0336303
 0,0.00183059,0.00036963,-0.00949114,0.02675885,0.00237673,-0.00269437,
 0.00116938,0.00065516,-0.00018704,-0.00017945,-0.00000583,-0.00000736,
 0.00000129,-0.00000918,0.00022672,-0.00018298,0.00019964,-0.00023487,0
 .00021789,-0.00009164,-0.00006987,0.00002471,-0.00007084,-0.00028593,-
 0.00248503,-0.00015493,0.00066651,-0.01365915,-0.00323647,0.04296634,0
 .00055883,-0.00069061,-0.00254355,-0.00626006,-0.01841095,0.02066604,0
 .00557428,-0.20881885,0.01003579,0.01458628,-0.01856405,-0.00318886,0.
 00057866,-0.00003990,-0.00022770,0.00013675,0.00015312,0.00002366,0.00
 001844,-0.00005757,0.00001027,0.00024756,-0.00024292,-0.00062779,-0.00
 007689,0.00014857,0.00046431,-0.00015694,0.00007303,0.00035975,0.00003
 396,0.00062063,0.00046460,-0.00588038,-0.01437885,-0.00614118,-0.01026
 478,0.26003107,-0.00036910,-0.00047785,0.00101319,0.00505896,0.0278117
 5,-0.01338389,-0.00091729,0.00839082,-0.03351619,0.00198229,-0.0052484
 3,0.00263051,0.00080753,-0.00039367,-0.00004387,0.00031376,0.00005591,
 -0.00016851,-0.00002462,-0.00002621,-0.00001807,0.00030103,-0.00036652
 ,0.00008884,-0.00012567,0.00037443,-0.00007617,-0.00014175,0.00012053,
 0.00005362,0.00164953,0.00482259,0.00004518,-0.00303017,-0.01354924,0.
 00089062,-0.00521912,-0.01883488,0.04324725,0.00034181,-0.00042031,0.0
 0026075,-0.00259735,0.00209834,0.00044242,-0.02018445,-0.00132425,0.02
 822377,-0.04112030,-0.01300068,0.03476215,0.00326901,-0.00104300,0.000
 63406,-0.00022347,-0.00008898,0.00006032,0.00004471,-0.00002255,-0.000
 01653,0.00046726,-0.00190578,-0.00078859,-0.00007736,0.00085921,0.0002
 4665,-0.00045082,0.00015209,0.00019464,0.00007766,-0.00092663,-0.00021
 810,-0.00082657,-0.00023380,0.00060127,-0.00028757,0.00040275,0.000554
 20,0.05757123,-0.00009452,-0.00011400,-0.00045544,0.00079550,-0.000103
 65,0.00042529,0.00297001,0.00376189,-0.00458337,-0.01298724,-0.0505484
 0,0.05018250,-0.00355844,-0.02535685,0.02653640,-0.00009248,-0.0000375
 7,0.00057889,0.00011913,0.00002897,0.00005147,-0.00075501,-0.00101746,
 -0.00126331,-0.00000415,-0.00014888,0.00014491,0.00002081,0.00013053,0
 .00030078,-0.00006139,0.00018357,-0.00000092,-0.00036856,0.00040973,0.
 00000135,0.00064775,0.00017191,-0.00062991,0.01253448,0.07158772,-0.00
 011632,-0.00018384,0.00010083,0.00087222,0.00083336,-0.00052803,0.0157
 8763,-0.00089986,-0.01275179,0.03689711,0.05250568,-0.18421197,0.00078
 352,0.01290906,-0.00501785,0.00011339,-0.00009163,0.00004479,-0.000085
 66,0.00000164,-0.00006984,-0.00003359,-0.00177122,0.00103904,0.0000436
 9,0.00092518,-0.00050962,0.00017981,0.00072176,-0.00023284,-0.00018025
 ,-0.00096438,-0.00027909,0.00028375,0.00012941,0.00070010,0.00046619,-
 0.00054259,0.00007100,-0.05146411,-0.06584204,0.22367151,-0.00005107,0
 .00005537,-0.00048588,-0.00144510,-0.00063498,0.00055552,-0.03614837,-
 0.00379680,-0.01222652,-0.11176833,-0.04889156,-0.07184992,0.00072227,
 -0.00811304,-0.00265154,0.00030813,0.00047291,0.00015419,0.00008474,-0
 .00005091,0.00005077,0.00005596,-0.00001620,-0.00057312,0.00007345,-0.
 00001850,0.00021123,-0.00015890,0.00005787,0.00024851,-0.00005077,0.00
 039653,0.00006436,-0.00275258,0.00096120,0.00053236,-0.00048650,0.0003
 7471,-0.00037476,0.00319205,0.00010215,-0.00310999,0.14758556,-0.00008
 154,-0.00026179,-0.00037908,-0.00049609,0.00026639,0.00130214,0.004170
 41,0.00441800,0.00169832,-0.04904211,-0.06330532,-0.04397496,-0.016750
 01,-0.02934845,-0.01740040,0.00033590,-0.00320917,0.00003145,-0.000371
 23,-0.00026967,-0.00030400,0.00014526,-0.00017024,0.00006004,0.0000104
 7,0.00006847,0.00010986,-0.00000252,0.00005625,0.00008755,-0.00003736,
 0.00006142,0.00005337,0.00074693,-0.00002385,-0.00036495,0.00073841,0.
 00033350,0.00018744,0.00166617,0.00475275,0.00172768,0.05926484,0.0880
 7862,-0.00027787,-0.00047314,-0.00066526,0.00118504,0.00081869,0.00165
 504,-0.00075880,0.00139297,0.00373776,-0.07463427,-0.04624424,-0.10178
 908,-0.00182947,-0.00702552,0.00097380,-0.00013723,0.00040435,0.000225
 57,0.00006773,-0.00000949,0.00004472,-0.00016768,-0.00000854,0.0000318
 6,0.00006369,-0.00000466,-0.00002374,0.00009382,0.00012506,0.00004182,
 -0.00004258,-0.00078014,-0.00023595,0.00048680,-0.00041734,-0.00002370
 ,-0.00018409,0.00032347,0.00034347,-0.01335738,-0.00608533,-0.02250815
 ,0.08918205,0.05768269,0.11741608,0.00000444,-0.00021679,-0.00038662,-
 0.00004023,0.00034796,0.00058214,0.00050785,0.00009939,-0.00013780,-0.
 00843649,0.01498177,0.00311558,-0.18431084,0.04094840,0.04644287,-0.03
 346627,-0.00510986,-0.00255352,-0.00013732,-0.00063636,-0.00000329,-0.
 00037670,0.00023923,-0.00172872,0.00011731,-0.00026925,0.00043081,-0.0
 0055094,0.00010508,0.00045268,-0.00003906,-0.00021708,-0.00008089,-0.0
 0008686,0.00001675,-0.00004475,-0.00004393,0.00012300,-0.00002005,0.00
 023925,0.00025418,-0.00036407,0.00050959,0.00010172,0.00018122,0.23372
 511,0.00001677,0.00015768,0.00009902,-0.00020349,-0.00050317,0.0000957
 1,0.00055973,-0.00317293,0.00003447,0.02618770,-0.02151466,-0.00752208
 ,0.04019489,-0.04392650,-0.01268671,-0.01153388,0.00285472,0.00018574,
 -0.00103593,-0.00010066,-0.00017963,-0.00014731,0.00017149,0.00054689,
 0.00005125,-0.00009504,-0.00001170,0.00019543,-0.00036334,0.00000817,0
 .00011540,0.00040696,0.00010789,-0.00015610,-0.00000997,-0.00004448,0.
 00050492,-0.00013848,-0.00015449,0.00064803,-0.00042347,0.00025897,0.0
 0036384,-0.00080944,-0.00048523,-0.05008916,0.06390075,-0.00002181,0.0
 0006270,-0.00005907,0.00005026,-0.00026923,0.00020326,-0.00010075,0.00
 031845,-0.00003352,0.00061746,-0.00215171,0.00310348,0.05019515,-0.013
 22746,-0.04690167,-0.01453797,-0.00039736,0.00331385,-0.00017191,-0.00
 003230,0.00033581,-0.00141279,-0.00028633,0.00021169,0.00022745,-0.000
 21174,-0.00009319,0.00068312,0.00024411,0.00018532,0.00009459,0.000260
 12,0.00009159,0.00003513,0.00004567,0.00009837,-0.00002329,0.00001640,
 0.00004212,-0.00032046,0.00058339,0.00034548,0.00015462,-0.00049240,0.
 00005950,-0.05393881,0.01892344,0.05348022,-0.00015807,-0.00068929,-0.
 00060298,-0.00032145,0.00267413,0.00097029,-0.00035022,-0.00028686,-0.
 00002616,0.00390803,0.00142479,-0.00295897,-0.03341834,-0.00338961,0.0
 1311654,-0.00158343,-0.00121571,-0.02353573,0.00014942,-0.00018724,-0.
 00021948,-0.00151673,-0.00198128,-0.00031209,-0.00000449,0.00068250,-0
 .00001752,0.00016393,0.00027104,0.00004769,-0.00114675,-0.00028257,0.0
 0043348,-0.00011068,0.00013582,-0.00020164,-0.00001024,0.00004805,0.00
 002633,0.00034903,0.00051824,0.00006881,0.00022528,-0.00057920,0.00012
 814,-0.00612287,-0.00323706,0.02086551,0.04062573,-0.00002908,-0.00032
 839,0.00003125,0.00124431,0.00032235,-0.00077482,-0.00023577,-0.000162
 44,0.00049563,-0.00090061,-0.02412456,0.02616369,-0.00371516,-0.047629
 33,0.04779503,-0.00223410,0.00377951,-0.01238534,-0.00032022,-0.000073
 42,-0.00087801,-0.00149662,-0.00102511,0.00033779,0.00007451,0.0004722
 8,-0.00033082,0.00035377,-0.00005072,-0.00021128,0.00016050,-0.0007979
 6,-0.00041396,0.00006369,-0.00011026,0.00002432,-0.00010433,-0.0000183
 5,0.00009448,0.00013099,-0.00311874,0.00027545,-0.00037117,-0.00065923
 ,0.00050129,0.00033158,0.00415172,-0.00207771,0.00613574,0.06885090,0.
 00001128,-0.00036666,-0.00085571,0.00005396,0.00061553,0.00142118,0.00
 017348,-0.00025796,-0.00036187,-0.00035246,0.01419944,-0.00593997,0.01
 370020,0.04999907,-0.19027432,-0.01415257,-0.00550968,-0.03013169,-0.0
 0004654,-0.00070204,-0.00030870,-0.00119430,-0.00068986,-0.00130258,0.
 00042687,-0.00006327,0.00025810,0.00021263,0.00016228,0.00028902,-0.00
 007304,-0.00134101,-0.00025133,-0.00011760,0.00006333,-0.00001562,0.00
 007172,0.00005768,-0.00001815,-0.00000158,0.00029679,-0.00002371,0.000
 27703,0.00003507,0.00062197,0.00951876,0.00196863,-0.01252533,-0.00830
 918,-0.05930180,0.23980477,-0.00002254,-0.00009540,-0.00003865,0.00009
 701,0.00033131,-0.00001231,-0.00007451,-0.00002827,0.00003232,0.000009
 46,-0.00001226,0.00002999,-0.00014794,0.00010420,-0.00012634,-0.000926
 40,-0.00053208,0.00022421,0.00026244,0.00002190,0.00014188,0.00794642,
 0.01277753,0.00578780,-0.00345833,0.00049103,0.00005421,-0.04966612,-0
 .05268449,-0.01107908,-0.00004538,-0.00038632,-0.00013221,0.00002462,-
 0.00001506,0.00000058,0.00000633,-0.00000400,0.00001216,0.00001091,-0.
 00001581,-0.00002593,0.00000698,-0.00000508,-0.00001369,0.00005428,-0.
 00004663,-0.00009641,-0.00000999,-0.00003427,-0.00004602,0.05459478,-0
 .00003099,0.00014909,0.00025958,0.00004135,-0.00026002,-0.00037309,0.0
 0001311,0.00011496,0.00022429,0.00005980,0.00000950,0.00008413,0.00000
 176,-0.00024443,0.00034894,-0.00003720,0.00018133,0.00058822,-0.000040
 60,0.00052115,0.00011410,0.00636985,-0.02347858,-0.01890888,-0.0005197
 7,0.00174610,0.00027941,-0.05478563,-0.19201794,-0.03480598,0.00004401
 ,0.00018969,0.00003138,0.00001074,-0.00010129,-0.00016996,0.00000162,-
 0.00004451,-0.00002413,-0.00005027,-0.00004099,-0.00006378,-0.00003359
 ,-0.00001504,-0.00002295,-0.00006219,0.00006042,-0.00005834,0.00002149
 ,0.00009337,-0.00003551,0.06202456,0.23362859,-0.00000047,0.00031515,0
 .00029656,-0.00010477,-0.00081954,-0.00031592,-0.00002672,0.00021436,0
 .00002603,0.00005777,0.00002780,-0.00000504,-0.00000215,-0.00005881,0.
 00033206,0.00121175,0.00111445,-0.00092233,-0.00001039,-0.00006523,-0.
 00101716,0.00064969,-0.02572458,-0.00758679,0.00136743,0.00073342,-0.0
 0106678,-0.01212022,-0.03492613,-0.04067122,0.00012864,0.00075650,0.00
 021392,0.00004683,-0.00003239,0.00000768,0.00001291,-0.00004944,-0.000
 00882,-0.00001422,-0.00003624,0.00002764,-0.00003039,-0.00001286,-0.00
 000882,-0.00003802,-0.00005050,-0.00005904,0.00005830,0.00003092,-0.00
 003438,0.01066394,0.04935638,0.04747126,-0.00001201,-0.00002853,-0.000
 00437,0.00004494,0.00011330,-0.00001439,-0.00010637,-0.00000172,-0.000
 03404,-0.00001073,-0.00003652,0.00002243,-0.00002945,-0.00007561,0.000
 18454,-0.00054658,0.00113131,0.00130889,0.00000798,0.00010864,-0.00006
 841,0.00147626,-0.00549479,0.02020655,-0.00059777,0.00030205,-0.001228
 31,-0.03747342,0.00470783,-0.00660083,-0.00000912,-0.00015897,-0.00005
 678,0.00005934,0.00001232,0.00008051,0.00001841,-0.00000287,0.00001654
 ,0.00004630,-0.00001352,-0.00004062,0.00000994,-0.00000711,-0.00001724
 ,0.00004019,0.00001436,-0.00005437,0.00001946,0.00000932,-0.00000579,0
 .00390688,-0.00582814,0.00495132,0.03756810,-0.00003025,-0.00031198,-0
 .00017816,0.00018880,0.00092190,0.00011887,-0.00006946,-0.00026413,0.0
 0010290,-0.00002736,-0.00005922,0.00015071,-0.00005614,0.00004254,0.00
 006830,0.00127193,-0.00058185,-0.00133359,0.00002277,-0.00003453,0.000
 11718,-0.00130247,0.01051606,-0.00634028,0.00045840,-0.00176968,0.0006
 8228,0.00393964,-0.08428830,0.08177073,-0.00013058,-0.00085285,-0.0002
 2764,0.00001195,0.00005978,-0.00005772,-0.00000049,0.00003691,-0.00001
 477,0.00001561,0.00002475,-0.00018948,0.00001349,0.00000049,-0.0000327
 2,0.00001763,0.00004122,-0.00005056,0.00000435,-0.00000379,-0.00000560
 ,-0.00198966,-0.01836981,0.01687069,-0.00585871,0.09294230,-0.00002622
 ,0.00026202,0.00033443,-0.00001790,-0.00057960,-0.00043658,0.00000427,
 0.00019401,0.00021351,0.00007338,0.00004878,0.00009634,-0.00007398,-0.
 00001750,0.00021228,0.00076009,-0.00049074,-0.00096398,0.00002708,0.00
 001279,0.00004302,0.01505705,0.00175139,-0.03493474,-0.00236063,0.0019
 6014,0.00009954,-0.00573645,0.07958212,-0.16768680,0.00009668,0.000537
 38,0.00014774,0.00001470,-0.00011118,-0.00016847,0.00000660,-0.0000733
 8,-0.00002136,-0.00005110,-0.00008566,-0.00008290,-0.00003877,-0.00002
 860,-0.00002257,-0.00003437,0.00000476,-0.00011955,0.00000673,0.000037
 67,-0.00005664,0.00111410,0.00576012,0.00191348,-0.00056521,-0.0961463
 2,0.21101598,-0.00001961,-0.00042935,-0.00037507,0.00019915,0.00117120
 ,0.00036808,-0.00017380,-0.00025791,-0.00007208,-0.00010892,-0.0001287
 2,-0.00002251,-0.00030320,0.00016876,0.00011949,0.00048123,0.00026434,
 0.00044204,-0.00001594,-0.00023498,0.00028049,-0.03104526,0.01061493,0
 .00783748,0.00095373,-0.00003987,0.00097536,-0.20367230,0.00922003,-0.
 05009126,-0.00015901,-0.00109803,-0.00029138,0.00002521,0.00009014,0.0
 0009427,0.00000418,0.00004986,0.00004194,0.00012308,0.00003143,-0.0000
 0517,0.00007205,-0.00000925,-0.00002319,0.00027976,-0.00005589,-0.0001
 1808,0.00006036,-0.00005487,-0.00000738,-0.01254685,-0.00741022,-0.006
 53811,-0.00446395,0.00362636,-0.00815807,0.25053047,-0.00003207,-0.000
 08639,0.00005409,0.00012548,0.00036637,-0.00015562,-0.00010691,-0.0000
 8664,0.00014200,0.00000278,-0.00003514,0.00017270,-0.00002862,-0.00013
 065,0.00020292,-0.00033577,-0.00042487,-0.00005830,-0.00015595,0.00024
 096,0.00036654,0.01569334,0.00105842,-0.00252017,0.00023922,-0.0015927
 1,-0.00097184,0.00956731,-0.03230626,0.00405205,-0.00004567,-0.0003747
 4,-0.00011294,0.00003988,-0.00000149,-0.00004078,0.00001083,-0.0000101
 1,-0.00001067,0.00003629,-0.00006391,-0.00020730,-0.00000439,-0.000022
 37,-0.00005344,-0.00003850,0.00016625,-0.00021166,-0.00003889,0.000044
 84,-0.00004056,-0.01999559,-0.00186061,-0.00741105,0.01110912,0.001435
 69,0.00763388,-0.01618405,0.03363520,0.00000160,0.00017724,0.00016762,
 -0.00004697,-0.00043127,-0.00018997,-0.00013848,0.00015064,-0.00007506
 ,0.00003750,0.00000395,-0.00002167,-0.00025369,0.00021282,-0.00002760,
 0.00035488,-0.00064235,-0.00175076,0.00035289,0.00016294,-0.00033237,0
 .01896353,-0.00174090,0.00675629,0.00115852,-0.00305865,-0.00230394,-0
 .05071136,0.00408389,-0.05002785,0.00007139,0.00033053,0.00007853,0.00
 005703,0.00002546,0.00015163,0.00001114,-0.00003389,0.00001775,0.00003
 923,-0.00006769,0.00003670,-0.00001455,-0.00002246,-0.00002980,-0.0000
 5020,-0.00014856,-0.00048009,-0.00001096,-0.00004650,-0.00012310,-0.00
 678607,-0.00268320,0.00167299,-0.01838145,0.00491654,-0.00928561,0.055
 69015,-0.00103926,0.05563289,0.00004309,0.00261998,0.00166663,-0.00263
 883,-0.01292870,-0.00143507,0.00072063,0.00013504,-0.00025786,-0.00042
 715,0.00003727,0.00020222,-0.00334142,-0.00299821,0.00273684,0.0051468
 1,-0.01175657,0.04577698,0.00086930,0.00034260,-0.00078688,-0.00752992
 ,0.00114831,0.00330274,0.00127391,-0.00026355,-0.00029192,0.00039002,-
 0.00020022,0.00182614,-0.00223988,0.00905228,0.00379165,-0.00017872,0.
 00003363,0.00017507,0.00001023,-0.00003671,-0.00016383,0.00007171,-0.0
 0007444,0.00002433,0.00002278,0.00004953,0.00001941,0.00057084,0.00032
 443,0.00033626,-0.00068164,0.00056107,-0.00124218,-0.00011463,-0.00013
 940,0.00000028,-0.00015885,0.00022324,0.00003273,0.00019734,-0.0000605
 7,-0.00009031,0.05861240,0.00125655,0.02168238,0.01800287,-0.02923756,
 -0.13642884,-0.01925813,0.00102171,0.00532646,-0.00307982,-0.00116470,
 0.00081627,-0.00108660,-0.00207192,0.00014835,0.00161625,-0.00023649,-
 0.00284246,0.00027979,0.00126936,-0.00086772,-0.00018613,-0.00067602,0
 .00233735,-0.00469028,0.00021232,-0.00237643,0.00189079,-0.00078632,-0
 .00022465,0.00261870,0.02183806,0.06276000,0.02241837,0.00139997,0.002
 44794,0.00255593,0.00071838,-0.00018200,-0.00135619,0.00038874,-0.0000
 7806,0.00037961,-0.00012575,0.00000111,0.00030097,0.00006482,-0.000172
 10,-0.00007902,0.00008949,0.00024146,0.00023896,0.00005019,-0.00022182
 ,-0.00029148,0.00001649,0.00036899,-0.00026646,0.00053728,0.00008815,-
 0.00015256,0.00586015,0.08829099,0.00270461,0.04473239,0.03597637,-0.0
 4186589,-0.19867607,-0.03022935,0.00294951,0.01631433,-0.00790239,-0.0
 0249664,0.00296907,-0.00288884,-0.00371467,-0.00402008,0.00026364,0.07
 259530,0.00684763,-0.08017193,-0.00089002,0.00133106,-0.00026800,0.010
 23581,0.00016607,-0.00196840,-0.00161787,-0.00415545,0.00265234,-0.002
 41745,-0.00143346,0.00086838,0.03941848,0.23759138,0.06278673,0.003959
 02,0.00638536,0.00560740,0.00169264,-0.00111818,-0.00341087,0.00071809
 ,-0.00032452,0.00090532,-0.00052726,-0.00016114,0.00058101,-0.00040176
 ,-0.00057102,-0.00044575,0.00096625,0.00154626,0.00058553,0.00064011,0
 .00027442,-0.00038666,0.00036153,0.00049032,-0.00028341,0.00047602,0.0
 0046461,0.00007577,-0.04811751,-0.11332759,0.13731188,0.00017050,0.002
 67261,0.00192969,-0.00149503,-0.01049345,-0.00162862,0.00045587,0.0005
 9376,-0.00064437,-0.00043022,0.00035995,0.00025935,-0.04526102,-0.0095
 5363,0.00323687,-0.19378702,0.02796577,0.00487399,-0.02820844,0.014432
 27,0.01384623,0.00447520,-0.00876599,0.02164655,-0.00231861,0.00117707
 ,-0.00042374,0.00026347,-0.00056402,-0.00261204,0.00152613,0.01380130,
 0.00230981,0.00000506,0.00014103,0.00030372,0.00014681,-0.00005086,-0.
 00037765,-0.00003693,0.00003245,-0.00009498,-0.00000614,0.00015247,0.0
 0003578,-0.00243763,-0.00267204,-0.00246233,-0.00006537,0.00043160,0.0
 0110366,0.00009237,0.00034906,-0.00026334,0.00021028,-0.00032853,-0.00
 013072,-0.00041715,0.00020271,-0.00025246,-0.05061768,-0.00042608,-0.0
 3468111,0.31773630,0.00047626,0.00582035,0.00442632,-0.00751349,-0.030
 05438,-0.00596139,-0.00060042,0.00040783,-0.00235311,-0.00120910,0.000
 16215,-0.00021060,-0.01481041,0.00055009,0.00154746,0.02526274,-0.0325
 6638,-0.00599094,0.02296345,-0.00586913,-0.01089212,-0.00691572,0.0036
 2293,0.00681236,0.00073155,0.00008479,-0.00111210,-0.00009409,0.000156
 06,0.00099784,0.00226068,0.04390851,-0.00483727,0.00115407,0.00105169,
 0.00135560,0.00056968,0.00002865,-0.00077436,0.00008143,0.00000110,0.0
 0008913,-0.00000603,0.00005821,0.00009190,-0.00099309,-0.00068211,-0.0
 0090933,-0.00011747,0.00014607,0.00067703,0.00004520,-0.00003857,0.000
 05830,-0.00001896,0.00014501,0.00001548,0.00012814,-0.00003986,0.00000
 296,0.00807056,-0.04112959,0.00468546,-0.02946971,0.05424748,-0.002325
 27,-0.03209320,-0.02407352,0.02453112,0.11489684,0.01514714,-0.0016833
 7,-0.01043764,0.00726055,0.00172607,-0.00222241,0.00227255,-0.00076421
 ,0.00665319,0.00818193,-0.00836984,-0.00753366,-0.02157400,0.01111623,
 -0.00733282,0.00069189,0.01970458,0.00792002,-0.03674615,0.00145426,-0
 .00011385,0.00183012,0.00097059,0.00123039,-0.00335974,-0.02597463,-0.
 17089619,-0.07707294,-0.00331129,-0.00481329,-0.00444792,-0.00105873,0
 .00095791,0.00222473,-0.00050600,0.00027265,-0.00072619,0.00045178,0.0
 0016490,-0.00042639,-0.00094039,-0.00037966,-0.00075404,-0.00049449,-0
 .00091429,-0.00075724,-0.00034507,-0.00017557,0.00012133,-0.00006056,-
 0.00070988,-0.00001270,-0.00062237,-0.00025502,0.00005773,-0.00751644,
 0.09346881,-0.11964329,-0.00597829,0.01230187,0.25180463\\0.00000004,-
 0.00000021,-0.00000042,0.00000020,0.00000025,-0.00000048,0.00000010,0.
 ,0.00000051,-0.00000003,0.00000027,0.00000023,-0.00000048,-0.00000017,
 -0.00000012,0.00000019,-0.00000021,0.00000041,-0.00000008,0.00000050,-
 0.00000002,-0.00000039,0.00000043,-0.00000012,0.00000067,-0.00000070,0
 .00000012,-0.00000028,-0.00000017,0.00000010,0.00000003,-0.00000014,-0
 .00000010,0.00000020,0.00000002,0.00000020,0.00000005,-0.00000042,0.,-
 0.00000003,-0.00000006,0.00000021,-0.00000044,-0.00000022,-0.00000037,
 -0.00000016,0.00000009,0.,-0.00000001,0.00000002,-0.00000019,0.0000001
 3,0.00000044,0.00000009,0.,-0.00000010,0.00000025,-0.00000017,0.000000
 04,-0.00000006,0.00000020,0.00000023,-0.00000023,0.00000027,0.00000013
 ,-0.00000002\\\@


 ABALONE: AN EXPRESSION OF DISBELIEF.
 Job cpu time:       0 days  0 hours  0 minutes  1.4 seconds.
 File lengths (MBytes):  RWF=     57 Int=      0 D2E=      0 Chk=      2 Scr=      1
 Normal termination of Gaussian 09 at Wed Feb 17 08:27:25 2021.
