22
Properties=species:S:1:pos:R:3:momenta:R:3:forces:R:3 pbc="F F F"
O       -1.15523736       1.81452923       3.27207404       1.47937400      -0.23191155      -2.01232858       0.08331133       0.01234938      -0.00280121
C       -1.04159505       1.24010926       2.23936242       0.25558534       0.11826072      -1.65809489      -0.03939527       0.47674724      -0.01463429
C       -0.60800916       1.69248767       0.88832159       0.04718972      -0.67359929      -1.46512351      -0.03207986      -0.00326359      -0.02158220
C        0.79366994       1.17933358       0.53836886      -1.09882151       0.94210040      -0.69021396       0.00745012       0.03860572       0.01840946
C        0.94166143      -0.34633386       0.60738470      -1.29084956      -3.07620229      -0.21480374       0.01284171       0.02873370       0.01189418
C       -0.07274616      -1.14733263      -0.20455932      -0.93335331       0.86976563      -1.66596879      -0.01281084      -0.03368656       0.04939525
H        0.18885183      -2.22687423      -0.20222701      -0.42196746       0.20133731      -0.26939210       0.02250291      -0.06922354       0.06426880
C       -0.26869779      -0.60352993      -1.62363905      -0.29107664      -1.52580511       1.21253847       0.05286151      -0.02553704       0.05605926
O       -1.05851485       0.27337932      -1.87728264      -2.06815330      -1.93729337      -0.25950689       0.01220526      -0.00357224      -0.04730140
C        0.60117323      -1.24478976      -2.66260797      -0.02669705       0.53748459      -0.78797445      -0.03223787       0.03591895      -0.01718968
H       -1.35372189      -0.04821217       2.20656973       0.16245185      -0.28003878      -0.84715811      -0.32181199      -1.47985642      -0.29568488
H       -1.33795944       1.31641505       0.11948177       0.28060675      -0.42248937      -0.00622463      -0.03262128       0.00675183      -0.05801095
H       -0.64188119       2.79996804       0.81979293       0.18855776       0.05005502       0.37864401       0.01329778      -0.01508512      -0.00502333
H        1.04699269       1.53803671      -0.48161211       0.17570745       0.19464807      -0.20563887       0.01362874      -0.00966814      -0.00399568
H        1.54075043       1.64369974       1.21510349      -0.68769878       0.15807919       0.65994589       0.06877507       0.00167797      -0.02200654
H        1.96750110      -0.62661340       0.29368579      -0.43735637      -0.41409732      -0.06966518       0.03562862      -0.00234036       0.00625699
H        0.85358830      -0.68295962       1.66734067       0.29200455      -0.24264682       0.11163615       0.03241148       0.00763080       0.00474126
H        0.26268213      -2.26658240      -2.89038853       0.04788050      -0.15095209      -0.20343302       0.05420293       0.02717367      -0.04996572
H        0.56506308      -0.68464634      -3.61080833      -0.10354196       0.21399274      -0.09196726       0.00126850       0.00850867      -0.01665840
H        1.65241202      -1.30916093      -2.35657962      -0.11531593      -0.11756723      -0.10706862      -0.08359124       0.02264979      -0.02567938
O       -1.43077839      -1.23938497       1.66755233      -0.32290098      -1.14777479       0.84344450       0.18935942       0.96756903       0.31209164
O       -1.44520491      -1.07153836       0.37466626      -2.15773781       1.23188494      -2.95081613      -0.04519704       0.00791623       0.05741682
