2
Properties=species:S:1:pos:R:3 energy=-3083.5210827144297 pbc="F F F"
C        1.06501500      -0.08664400      -0.04992400
O        2.20464400      -0.08664400      -0.04992400
