 Entering Gaussian System, Link 0=g09
 Initial command:
 /apps/applications/gaussian/G09.D01/2/default/g09/l1.exe "/nobackup/chmrsh/Scratch/Gau-51624.inp" -scrdir="/nobackup/chmrsh/Scratch/"
 Entering Link 1 = /apps/applications/gaussian/G09.D01/2/default/g09/l1.exe PID=     51625.
  
 Copyright (c) 1988,1990,1992,1993,1995,1998,2003,2009,2013,
            Gaussian, Inc.  All Rights Reserved.
  
 This is part of the Gaussian(R) 09 program.  It is based on
 the Gaussian(R) 03 system (copyright 2003, Gaussian, Inc.),
 the Gaussian(R) 98 system (copyright 1998, Gaussian, Inc.),
 the Gaussian(R) 94 system (copyright 1995, Gaussian, Inc.),
 the Gaussian 92(TM) system (copyright 1992, Gaussian, Inc.),
 the Gaussian 90(TM) system (copyright 1990, Gaussian, Inc.),
 the Gaussian 88(TM) system (copyright 1988, Gaussian, Inc.),
 the Gaussian 86(TM) system (copyright 1986, Carnegie Mellon
 University), and the Gaussian 82(TM) system (copyright 1983,
 Carnegie Mellon University). Gaussian is a federally registered
 trademark of Gaussian, Inc.
  
 This software contains proprietary and confidential information,
 including trade secrets, belonging to Gaussian, Inc.
  
 This software is provided under written license and may be
 used, copied, transmitted, or stored only in accord with that
 written license.
  
 The following legend is applicable only to US Government
 contracts under FAR:
  
                    RESTRICTED RIGHTS LEGEND
  
 Use, reproduction and disclosure by the US Government is
 subject to restrictions as set forth in subparagraphs (a)
 and (c) of the Commercial Computer Software - Restricted
 Rights clause in FAR 52.227-19.
  
 Gaussian, Inc.
 340 Quinnipiac St., Bldg. 40, Wallingford CT 06492
  
  
 ---------------------------------------------------------------
 Warning -- This program may not be used in any manner that
 competes with the business of Gaussian, Inc. or will provide
 assistance to any competitor of Gaussian, Inc.  The licensee
 of this program is prohibited from giving any competitor of
 Gaussian, Inc. access to this program.  By using this program,
 the user acknowledges that Gaussian, Inc. is engaged in the
 business of creating and licensing software in the field of
 computational chemistry and represents and warrants to the
 licensee that it is not a competitor of Gaussian, Inc. and that
 it will not use this program in any manner prohibited above.
 ---------------------------------------------------------------
  

 Cite this work as:
 Gaussian 09, Revision D.01,
 M. J. Frisch, G. W. Trucks, H. B. Schlegel, G. E. Scuseria, 
 M. A. Robb, J. R. Cheeseman, G. Scalmani, V. Barone, B. Mennucci, 
 G. A. Petersson, H. Nakatsuji, M. Caricato, X. Li, H. P. Hratchian, 
 A. F. Izmaylov, J. Bloino, G. Zheng, J. L. Sonnenberg, M. Hada, 
 M. Ehara, K. Toyota, R. Fukuda, J. Hasegawa, M. Ishida, T. Nakajima, 
 Y. Honda, O. Kitao, H. Nakai, T. Vreven, J. A. Montgomery, Jr., 
 J. E. Peralta, F. Ogliaro, M. Bearpark, J. J. Heyd, E. Brothers, 
 K. N. Kudin, V. N. Staroverov, T. Keith, R. Kobayashi, J. Normand, 
 K. Raghavachari, A. Rendell, J. C. Burant, S. S. Iyengar, J. Tomasi, 
 M. Cossi, N. Rega, J. M. Millam, M. Klene, J. E. Knox, J. B. Cross, 
 V. Bakken, C. Adamo, J. Jaramillo, R. Gomperts, R. E. Stratmann, 
 O. Yazyev, A. J. Austin, R. Cammi, C. Pomelli, J. W. Ochterski, 
 R. L. Martin, K. Morokuma, V. G. Zakrzewski, G. A. Voth, 
 P. Salvador, J. J. Dannenberg, S. Dapprich, A. D. Daniels, 
 O. Farkas, J. B. Foresman, J. V. Ortiz, J. Cioslowski, 
 and D. J. Fox, Gaussian, Inc., Wallingford CT, 2013.
 
 ******************************************
 Gaussian 09:  ES64L-G09RevD.01 24-Apr-2013
                18-Feb-2021 
 ******************************************
 %nprocshared=1
 Will use up to    1 processors via shared memory.
 ----------------------------------------------------------------------
 #P pm6 scf=qc opt(calcall, ts, noeigentest, cartesian,maxcycle=100) No
 Symm
 ----------------------------------------------------------------------
 1/5=1,6=100,10=4,11=1,14=-1,18=10,26=1,38=1/1,3;
 2/12=2,15=1,17=6,18=5,29=2,40=1/2;
 3/5=2,16=1,25=1,41=3900000,71=2,140=1/1,2,3;
 4/35=1/1;
 5/5=2,8=3,35=1,38=5/8;
 8/6=4,10=90,11=11/1;
 11/6=1,8=1,9=11,15=111,16=1,31=1/1,2,10;
 10/6=1,31=1/2;
 6/7=2,8=2,9=2,10=2,18=1,28=1/1;
 7/7=1,10=1,25=1,30=1/1,2,3,16;
 1/5=1,6=100,10=4,11=1,14=-1,18=10,26=1/3(3);
 2/15=1,29=1/2;
 7/7=1,8=1,9=1,25=1,30=1,44=-1/16;
 99/12=1/99;
 2/15=1,29=1/2;
 3/5=2,16=1,25=1,41=3900000,71=2,135=20,140=1/1,2,3;
 4/5=5,16=3,35=1/1;
 5/5=2,8=3,35=1,38=5/8;
 8/6=4,10=90,11=11/1;
 11/6=1,8=1,9=11,15=111,16=1,31=1/1,2,10;
 10/6=1,31=1/2;
 7/7=1,10=1,25=1,30=1/1,2,3,16;
 1/5=1,6=100,10=4,11=1,14=-1,18=10,26=1/3(-8);
 2/15=1,29=1/2;
 6/7=2,8=2,9=2,10=2,18=1,19=2,28=1/1;
 7/7=1,8=1,9=1,25=1,30=1,44=-1/16;
 99/12=1/99;
 Leave Link    1 at Thu Feb 18 18:42:05 2021, MaxMem=           0 cpu:         0.0
 (Enter /apps/applications/gaussian/G09.D01/2/default/g09/l101.exe)
 ------------------------------
 Gaussian input prepared by ASE
 ------------------------------
 Symbolic Z-matrix:
 Charge =  0 Multiplicity = 2
 O                    -1.52193   2.46116   3.40271 
 C                    -0.62083   2.91498   2.86747 
 C                    -0.30139   2.01691   0.58294 
 C                     0.98674   1.36108   0.30283 
 C                     0.91401  -0.1721    0.25205 
 C                    -0.14184  -0.73826  -0.70543 
 H                     0.04106  -1.82487  -0.8942 
 C                    -0.26188   0.01188  -2.04425 
 O                    -1.27564   0.55873  -2.39598 
 C                     0.97932  -0.04016  -2.88764 
 H                    -2.37127  -1.38712   1.29045 
 H                    -1.1872    1.43645   0.77027 
 H                    -0.40019   3.07133   0.4361 
 H                     1.41435   1.75879  -0.64892 
 H                     1.71857   1.6644    1.08928 
 H                     1.90879  -0.57902  -0.01044 
 H                     0.67214  -0.57512   1.26366 
 H                     1.17782   0.93494  -3.35978 
 H                     1.87752  -0.3347   -2.33512 
 H                     0.8551   -0.75421  -3.71577 
 O                    -1.51171  -1.66046   0.85649 
 O                    -1.47137  -0.61708  -0.13327 
 
 NAtoms=     22 NQM=       22 NQMF=       0 NMMI=      0 NMMIF=      0
                NMic=       0 NMicF=      0.
                    Isotopes and Nuclear Properties:
 (Nuclear quadrupole moments (NQMom) in fm**2, nuclear magnetic moments (NMagM)
  in nuclear magnetons)

  Atom         1           2           3           4           5           6           7           8           9          10
 IAtWgt=          16          12          12          12          12          12           1          12          16          12
 AtmWgt=  15.9949146  12.0000000  12.0000000  12.0000000  12.0000000  12.0000000   1.0078250  12.0000000  15.9949146  12.0000000
 NucSpn=           0           0           0           0           0           0           1           0           0           0
 AtZEff=   0.0000000   0.0000000   0.0000000   0.0000000   0.0000000   0.0000000   0.0000000   0.0000000   0.0000000   0.0000000
 NQMom=    0.0000000   0.0000000   0.0000000   0.0000000   0.0000000   0.0000000   0.0000000   0.0000000   0.0000000   0.0000000
 NMagM=    0.0000000   0.0000000   0.0000000   0.0000000   0.0000000   0.0000000   2.7928460   0.0000000   0.0000000   0.0000000
 AtZNuc=   8.0000000   6.0000000   6.0000000   6.0000000   6.0000000   6.0000000   1.0000000   6.0000000   8.0000000   6.0000000

  Atom        11          12          13          14          15          16          17          18          19          20
 IAtWgt=           1           1           1           1           1           1           1           1           1           1
 AtmWgt=   1.0078250   1.0078250   1.0078250   1.0078250   1.0078250   1.0078250   1.0078250   1.0078250   1.0078250   1.0078250
 NucSpn=           1           1           1           1           1           1           1           1           1           1
 AtZEff=   0.0000000   0.0000000   0.0000000   0.0000000   0.0000000   0.0000000   0.0000000   0.0000000   0.0000000   0.0000000
 NQMom=    0.0000000   0.0000000   0.0000000   0.0000000   0.0000000   0.0000000   0.0000000   0.0000000   0.0000000   0.0000000
 NMagM=    2.7928460   2.7928460   2.7928460   2.7928460   2.7928460   2.7928460   2.7928460   2.7928460   2.7928460   2.7928460
 AtZNuc=   1.0000000   1.0000000   1.0000000   1.0000000   1.0000000   1.0000000   1.0000000   1.0000000   1.0000000   1.0000000

  Atom        21          22
 IAtWgt=          16          16
 AtmWgt=  15.9949146  15.9949146
 NucSpn=           0           0
 AtZEff=   0.0000000   0.0000000
 NQMom=    0.0000000   0.0000000
 NMagM=    0.0000000   0.0000000
 AtZNuc=   8.0000000   8.0000000
 Leave Link  101 at Thu Feb 18 18:42:05 2021, MaxMem=    33554432 cpu:         0.1
 (Enter /apps/applications/gaussian/G09.D01/2/default/g09/l103.exe)

 GradGradGradGradGradGradGradGradGradGradGradGradGradGradGradGradGradGrad
 Berny optimization.
 Initialization pass.
 No Z-matrix variables, so optimization will use Cartesian coordinates.
 Trust Radius=3.00D-01 FncErr=1.00D-07 GrdErr=1.00D-07
 Number of steps in this run=    100 maximum allowed number of steps=    132.
 Search for a saddle point of order  1.
 GradGradGradGradGradGradGradGradGradGradGradGradGradGradGradGradGradGrad

 Leave Link  103 at Thu Feb 18 18:42:05 2021, MaxMem=    33554432 cpu:         0.0
 (Enter /apps/applications/gaussian/G09.D01/2/default/g09/l202.exe)
 ---------------------------------------------------------------------------------------------------
                            Z-MATRIX (ANGSTROMS AND DEGREES)
   CD    Cent   Atom    N1       Length/X        N2       Alpha/Y        N3        Beta/Z          J
 ---------------------------------------------------------------------------------------------------
      1      1  O        0  -1.521928          2.461159          3.402712
      2      2  C        0  -0.620831          2.914979          2.867470
      3      3  C        0  -0.301386          2.016908          0.582941
      4      4  C        0   0.986738          1.361080          0.302828
      5      5  C        0   0.914010         -0.172096          0.252050
      6      6  C        0  -0.141836         -0.738258         -0.705433
      7      7  H        0   0.041057         -1.824874         -0.894204
      8      8  C        0  -0.261876          0.011877         -2.044247
      9      9  O        0  -1.275645          0.558726         -2.395979
     10     10  C        0   0.979323         -0.040159         -2.887639
     11     11  H        0  -2.371273         -1.387123          1.290453
     12     12  H        0  -1.187204          1.436450          0.770272
     13     13  H        0  -0.400191          3.071334          0.436104
     14     14  H        0   1.414351          1.758793         -0.648921
     15     15  H        0   1.718573          1.664405          1.089277
     16     16  H        0   1.908788         -0.579023         -0.010436
     17     17  H        0   0.672140         -0.575123          1.263658
     18     18  H        0   1.177822          0.934944         -3.359783
     19     19  H        0   1.877522         -0.334703         -2.335119
     20     20  H        0   0.855096         -0.754206         -3.715765
     21     21  O        0  -1.511706         -1.660461          0.856490
     22     22  O        0  -1.471374         -0.617080         -0.133270
 ---------------------------------------------------------------------------------------------------
                         Z-Matrix orientation:                         
 ---------------------------------------------------------------------
 Center     Atomic      Atomic             Coordinates (Angstroms)
 Number     Number       Type             X           Y           Z
 ---------------------------------------------------------------------
      1          8           0       -1.521928    2.461159    3.402712
      2          6           0       -0.620831    2.914979    2.867470
      3          6           0       -0.301386    2.016908    0.582941
      4          6           0        0.986738    1.361080    0.302828
      5          6           0        0.914010   -0.172096    0.252050
      6          6           0       -0.141836   -0.738258   -0.705433
      7          1           0        0.041057   -1.824874   -0.894204
      8          6           0       -0.261876    0.011877   -2.044247
      9          8           0       -1.275645    0.558726   -2.395979
     10          6           0        0.979323   -0.040159   -2.887639
     11          1           0       -2.371273   -1.387123    1.290453
     12          1           0       -1.187204    1.436450    0.770272
     13          1           0       -0.400191    3.071334    0.436104
     14          1           0        1.414351    1.758793   -0.648921
     15          1           0        1.718573    1.664405    1.089277
     16          1           0        1.908788   -0.579023   -0.010436
     17          1           0        0.672140   -0.575123    1.263658
     18          1           0        1.177822    0.934944   -3.359783
     19          1           0        1.877522   -0.334703   -2.335119
     20          1           0        0.855096   -0.754206   -3.715765
     21          8           0       -1.511706   -1.660461    0.856490
     22          8           0       -1.471374   -0.617080   -0.133270
 ---------------------------------------------------------------------
                    Distance matrix (angstroms):
                    1          2          3          4          5
     1  O    0.000000
     2  C    1.142108   0.000000
     3  C    3.104543   2.475409   0.000000
     4  C    4.136769   3.402392   1.472358   0.000000
     5  C    4.774358   4.327377   2.525552   1.535740   0.000000
     6  C    5.386815   5.132369   3.045702   2.587951   1.533663
     7  H    6.267095   6.087240   4.130195   3.532350   2.192628
     8  C    6.103775   5.716801   3.305121   2.981299   2.586412
     9  O    6.107759   5.803844   3.456796   3.611884   3.512939
    10  C    7.216742   6.664429   4.232808   3.484624   3.143139
    11  H    4.471275   4.905009   4.046286   4.450198   3.653444
    12  H    2.844610   2.627749   1.075499   2.224906   2.696493
    13  H    3.229763   2.446359   1.069176   2.205970   3.504403
    14  H    5.052799   4.224185   2.127877   1.116627   2.188704
    15  H    4.060498   3.193543   2.112077   1.116284   2.172788
    16  H    5.715076   5.185495   3.460610   2.170785   1.106378
    17  H    4.313757   4.052752   2.851272   2.184273   1.115474
    18  H    7.439712   6.777491   4.347847   3.692266   3.786881
    19  H    7.231584   6.623378   4.335065   3.260052   2.765545
    20  H    8.164651   7.679861   5.243606   4.543221   4.010720
    21  O    4.844699   5.076647   3.881075   3.959605   2.909411
    22  O    4.688419   4.712038   2.969802   3.185217   2.456936
                    6          7          8          9         10
     6  C    0.000000
     7  H    1.117953   0.000000
     8  C    1.539329   2.188154   0.000000
     9  O    2.413635   3.109755   1.204361   0.000000
    10  C    2.550758   2.835372   1.501530   2.384380   0.000000
    11  H    3.061858   3.283853   4.186524   4.310047   5.522433
    12  H    2.828401   3.862038   3.287424   3.286847   4.500503
    13  H    3.985328   5.092864   3.941008   3.885912   4.757280
    14  H    2.942818   3.845617   2.794349   3.424683   2.904710
    15  H    3.529149   4.350095   4.058571   4.725979   4.389521
    16  H    2.171045   2.412802   3.032710   4.138345   3.071250
    17  H    2.136934   2.572258   3.487002   4.297955   4.196882
    18  H    3.403921   3.871422   2.157641   2.662697   1.101429
    19  H    2.626127   2.769377   2.186721   3.277862   1.094896
    20  H    3.171156   3.125731   2.151391   2.829431   1.100495
    21  O    2.273016   2.345854   3.573942   3.944498   4.780074
    22  O    1.452489   2.079720   2.347404   2.557475   3.731662
                   11         12         13         14         15
    11  H    0.000000
    12  H    3.105668   0.000000
    13  H    4.949032   1.844967   0.000000
    14  H    5.290455   2.980957   2.488495   0.000000
    15  H    5.106774   2.932110   2.625880   1.767143   0.000000
    16  H    4.545796   3.775818   4.342336   2.473361   2.505697
    17  H    3.149988   2.783346   3.889909   3.107411   2.478087
    18  H    6.293867   4.785626   4.632823   2.843140   4.540778
    19  H    5.683715   4.708820   4.946589   2.727731   3.968398
    20  H    5.989346   5.393931   5.783470   4.004181   5.448276
    21  O    1.000946   3.115059   4.878737   4.745458   4.641511
    22  O    1.851965   2.261443   3.882784   3.773338   4.107987
                   16         17         18         19         20
    16  H    0.000000
    17  H    1.775564   0.000000
    18  H    3.747603   4.890012   0.000000
    19  H    2.337695   3.802886   1.775252   0.000000
    20  H    3.856219   4.986000   1.756161   1.768481   0.000000
    21  O    3.690643   2.472433   5.634416   4.840544   5.227673
    22  O    3.382607   2.558870   4.453920   4.017832   4.273820
                   21         22
    21  O    0.000000
    22  O    1.438713   0.000000
 Symmetry turned off by external request.
 Stoichiometry    C7H11O4(2)
 Framework group  C1[X(C7H11O4)]
 Deg. of freedom    60
 Full point group                 C1      NOp   1
 Rotational constants (GHZ):      1.4559754      0.6046253      0.5263996
 Leave Link  202 at Thu Feb 18 18:42:05 2021, MaxMem=    33554432 cpu:         0.0
 (Enter /apps/applications/gaussian/G09.D01/2/default/g09/l301.exe)
 Standard basis: VSTO-6G (5D, 7F)
 Ernie: Thresh=  0.10000D-02 Tol=  0.10000D-05 Strict=F.
  NNHCO=     0 NNPyr=     0 NCTC=     0               EPep=         0.000000000
    EC=       300.424994992  ECS=         4.312917798   EG=         0.324185450
   EHC=         0.001764849  EAt=       -76.388488019  AtH=         3.199295150
 EPDDG=         0.000000000  ECC=       305.063863088 EAtT=        79.587783169
    55 basis functions,   330 primitive gaussians,    55 cartesian basis functions
    32 alpha electrons       31 beta electrons
       nuclear repulsion energy       384.6516462568 Hartrees.
 IExCor=    0 DFT=F Ex=HF Corr=None ExCW=0 ScaHFX=  1.000000
 ScaDFX=  1.000000  1.000000  1.000000  1.000000 ScalE2=  1.000000  1.000000
 IRadAn=      0 IRanWt=     -1 IRanGd=            0 ICorTp=0 IEmpDi=  4
 Integral buffers will be    131072 words long.
 Regular integral format.
 Two-electron integral symmetry is turned off.
 Leave Link  301 at Thu Feb 18 18:42:05 2021, MaxMem=    33554432 cpu:         0.0
 (Enter /apps/applications/gaussian/G09.D01/2/default/g09/l302.exe)
 Do NDO integrals.
 NPDir=0 NMtPBC=     1 NCelOv=     1 NCel=       1 NClECP=     1 NCelD=      1
         NCelK=      1 NCelE2=     1 NClLst=     1 CellRange=     0.0.
 One-electron integrals computed using PRISM.
 NBasis=    55 RedAO= F EigKep=  0.00D+00  NBF=    55
 NBsUse=    55 1.00D-04 EigRej=  0.00D+00 NBFU=    55
 Leave Link  302 at Thu Feb 18 18:42:05 2021, MaxMem=    33554432 cpu:         0.1
 (Enter /apps/applications/gaussian/G09.D01/2/default/g09/l303.exe)
 DipDrv:  MaxL=1.
 Leave Link  303 at Thu Feb 18 18:42:05 2021, MaxMem=    33554432 cpu:         0.0
 (Enter /apps/applications/gaussian/G09.D01/2/default/g09/l401.exe)
 Simple Huckel Guess.
 JPrj=0 DoOrth=F DoCkMO=F.
 Initial guess <Sx>= 0.0000 <Sy>= 0.0000 <Sz>= 0.5000 <S**2>= 0.7500 S= 0.5000
 Leave Link  401 at Thu Feb 18 18:42:05 2021, MaxMem=    33554432 cpu:         0.0
 (Enter /apps/applications/gaussian/G09.D01/2/default/g09/l508.exe)
 Direct SCF.
 Tight linear equation convergence will be used.
 UPM6 wavefunction.
 Quadratic Convergence SCF Method.
 Line search only if initial step raises energy.
 Two-electron integral symmetry not used.
 ReadGW:  IGet=1 IStart=       59293 Next=       59293 LGW=           0.
 Keep J ints in memory in canonical form, NReq=909807.
 FoFCou: FMM=F IPFlag=           0 FMFlag=           0 FMFlg1=           0
         NFxFlg=           0 DoJE=F BraDBF=F KetDBF=F FulRan=T
         wScrn=  0.000000 ICntrl=     600 IOpCl=  2 I1Cent=           0 NGrid=           0
         NMat0=    1 NMatS0=    121 NMatT0=    0 NMatD0=    1 NMtDS0=    0 NMtDT0=    0
 Symmetry not used in FoFCou.
 Iteration   1 EE= 0.512083630566565                                    Grad=5.413D-01 Max rot=    6.5798 deg.
 Gradient too large for Newton-Raphson -- use scaled steepest descent instead.
 Alpha Gap=     0.363 HL deriv= 6.19D-03
  Beta Gap=     0.388 HL deriv= 8.41D-03
     ILin= 1 X=0.000D+00 Y= 5.120836305666D-01 DE= 0.00D+00 F= -7.04D-01
     ILin= 2 X=3.000D-01 Y= 3.186761536953D-01 DE=-1.93D-01 F= -5.83D-01
     ILin= 3 X=5.000D-01 Y= 2.105915987127D-01 DE=-3.01D-01 F= -4.97D-01
     ILin= 4 X=7.000D-01 Y= 1.203381968087D-01 DE=-3.92D-01 F= -4.05D-01
     ILin= 5 X=1.000D+00 Y= 2.047180901144D-02 DE=-4.92D-01 F= -2.59D-01
     ILin= 6 X=1.500D+00 Y=-4.407209073850D-02 DE=-5.56D-01 F=  4.61D-03
     Accept linear search using points  5 and  6.
     An  expanding polynomial of degree  6 produced  1.3883
     Minimum is close to point  6 DX= -1.12D-01 DF= -7.19D-04 DXR=  8.04D-02 DFR=  1.29D-03 which will be used.
 Iteration   2 EE=-0.440720907384957E-01 Delta-E=       -0.556155721305 Grad=1.548D-01 Max rot=    1.8709 deg.
 Gradient too large for Newton-Raphson -- use scaled steepest descent instead.
 Alpha Gap=     0.386 HL deriv= 2.70D-03
  Beta Gap=     0.384 HL deriv= 6.65D-03
     ILin= 1 X=0.000D+00 Y=-4.407209073850D-02 DE= 0.00D+00 F= -5.78D-02
     ILin= 2 X=6.000D-01 Y=-7.125943640881D-02 DE=-2.72D-02 F= -3.27D-02
     ILin= 3 X=1.100D+00 Y=-8.233009570949D-02 DE=-3.83D-02 F= -1.15D-02
     ILin= 4 X=1.900D+00 Y=-7.781947661522D-02 DE=-3.37D-02 F=  2.29D-02
     An  expanding polynomial of degree  4 produced  1.3694
 Iteration   3 EE=-0.838797469716042E-01 Delta-E=       -0.039807656233 Grad=4.670D-02 Max rot=    0.7496 deg.
 Gradient too large for Newton-Raphson -- use scaled steepest descent instead.
 Alpha Gap=     0.394 HL deriv= 1.15D-03
  Beta Gap=     0.401 HL deriv= 6.29D-04
     ILin= 1 X=0.000D+00 Y=-8.387974697160D-02 DE= 0.00D+00 F= -5.73D-03
     ILin= 2 X=1.400D+00 Y=-8.755071686431D-02 DE=-3.67D-03 F=  5.01D-04
     Accept linear search using points  1 and  2.
     An  expanding polynomial of degree  2 produced  1.3476
     Minimum is close to point  2 DX= -5.24D-02 DF= -9.29D-06 DXR=  3.89D-02 DFR=  2.53D-03 which will be used.
 Iteration   4 EE=-0.875507168643139E-01 Delta-E=       -0.003670969893 Grad=1.953D-02 Max rot=    0.2499 deg.
 Gradient too large for Newton-Raphson -- use scaled steepest descent instead.
 Alpha Gap=     0.397 HL deriv= 3.74D-04
  Beta Gap=     0.399 HL deriv= 2.48D-04
     ILin= 1 X=0.000D+00 Y=-8.755071686431D-02 DE= 0.00D+00 F= -9.39D-04
     ILin= 2 X=1.400D+00 Y=-8.810839850150D-02 DE=-5.58D-04 F=  1.42D-04
     Accept linear search using points  1 and  2.
     An  expanding polynomial of degree  2 produced  1.3051
     Minimum is close to point  2 DX= -9.49D-02 DF= -4.73D-06 DXR=  7.27D-02 DFR=  8.48D-03 which will be used.
 Iteration   5 EE=-0.881083985015039E-01 Delta-E=       -0.000557681637 Grad=9.025D-03 Max rot=    0.0982 deg.
 QCNR:  CnvC1=3.85D-09 CnvC2=3.85D-08
 LinEq1:  Iter=  0 NonCon=     1 RMS=3.24D-04 Max=3.61D-03 NDo=     1
 AX will form     1 AO Fock derivatives at one time.
 LinEq1:  Iter=  1 NonCon=     1 RMS=1.04D-04 Max=1.46D-03 NDo=     1
 LinEq1:  Iter=  2 NonCon=     1 RMS=1.80D-05 Max=2.73D-04 NDo=     1
 LinEq1:  Iter=  3 NonCon=     1 RMS=3.59D-06 Max=3.34D-05 NDo=     1
 LinEq1:  Iter=  4 NonCon=     1 RMS=5.94D-07 Max=6.67D-06 NDo=     1
 LinEq1:  Iter=  5 NonCon=     1 RMS=1.06D-07 Max=1.64D-06 NDo=     1
 LinEq1:  Iter=  6 NonCon=     1 RMS=3.15D-08 Max=6.82D-07 NDo=     1
 LinEq1:  Iter=  7 NonCon=     1 RMS=7.84D-09 Max=1.17D-07 NDo=     1
 LinEq1:  Iter=  8 NonCon=     0 RMS=1.20D-09 Max=9.60D-09 NDo=     1
 Linear equations converged to 3.847D-09 3.847D-08 after     8 iterations.
 Angle between quadratic step and gradient=  47.64 degrees.
     ILin= 1 X=0.000D+00 Y=-8.810839850150D-02 DE= 0.00D+00 F= -3.71D-04
     ILin= 2 X=1.000D+00 Y=-8.829338177395D-02 DE=-1.85D-04 F=  1.12D-06
     Accept linear search using points  1 and  2.
     An  expanding polynomial of degree  2 produced  0.9970
     Minimum is close to point  2 DX= -3.01D-03 DF= -1.69D-09 DXR=  3.02D-03 DFR=  9.11D-06 which will be used.
 Iteration   6 EE=-0.882933817739513E-01 Delta-E=       -0.000184983272 Grad=2.551D-04 Max rot=    0.0031 deg.
 QCNR:  CnvC1=2.55D-09 CnvC2=2.55D-08
 LinEq1:  Iter=  0 NonCon=     1 RMS=8.12D-06 Max=6.14D-05 NDo=     1
 LinEq1:  Iter=  1 NonCon=     1 RMS=1.80D-06 Max=2.22D-05 NDo=     1
 LinEq1:  Iter=  2 NonCon=     1 RMS=3.94D-07 Max=6.85D-06 NDo=     1
 LinEq1:  Iter=  3 NonCon=     1 RMS=1.34D-07 Max=2.62D-06 NDo=     1
 LinEq1:  Iter=  4 NonCon=     1 RMS=3.18D-08 Max=3.23D-07 NDo=     1
 LinEq1:  Iter=  5 NonCon=     1 RMS=6.75D-09 Max=5.58D-08 NDo=     1
 LinEq1:  Iter=  6 NonCon=     0 RMS=1.50D-09 Max=1.51D-08 NDo=     1
 Linear equations converged to 2.551D-09 2.551D-08 after     6 iterations.
 Angle between quadratic step and gradient=  85.42 degrees.
     ILin= 1 X=0.000D+00 Y=-8.829338177395D-02 DE= 0.00D+00 F= -5.41D-07
     ILin= 2 X=1.000D+00 Y=-8.829360395760D-02 DE=-2.22D-07 F=  1.05D-07
     Accept linear search using points  1 and  2.
     An  expanding polynomial of degree  2 produced  0.8422
 Iteration   7 EE=-0.882936122212641E-01 Delta-E=       -0.000000230447 Grad=1.749D-04 Max rot=    0.0024 deg.
 QCNR:  CnvC1=1.75D-09 CnvC2=1.75D-08
 LinEq1:  Iter=  0 NonCon=     1 RMS=6.20D-06 Max=5.83D-05 NDo=     1
 LinEq1:  Iter=  1 NonCon=     1 RMS=1.81D-06 Max=1.79D-05 NDo=     1
 LinEq1:  Iter=  2 NonCon=     1 RMS=4.04D-07 Max=4.43D-06 NDo=     1
 LinEq1:  Iter=  3 NonCon=     1 RMS=1.03D-07 Max=1.84D-06 NDo=     1
 LinEq1:  Iter=  4 NonCon=     1 RMS=2.90D-08 Max=5.08D-07 NDo=     1
 LinEq1:  Iter=  5 NonCon=     1 RMS=7.22D-09 Max=9.59D-08 NDo=     1
 LinEq1:  Iter=  6 NonCon=     0 RMS=1.63D-09 Max=1.37D-08 NDo=     1
 Linear equations converged to 1.749D-09 1.749D-08 after     6 iterations.
 Angle between quadratic step and gradient=  71.99 degrees.
     ILin= 1 X=0.000D+00 Y=-8.829361222126D-02 DE= 0.00D+00 F= -1.82D-07
     ILin= 2 X=1.000D+00 Y=-8.829369955566D-02 DE=-8.73D-08 F=  7.72D-09
     Accept linear search using points  1 and  2.
     An  expanding polynomial of degree  2 produced  0.9594
     Minimum is close to point  2 DX= -4.06D-02 DF= -1.57D-10 DXR=  4.23D-02 DFR=  1.79D-03 which will be used.
 Iteration   8 EE=-0.882936995556634E-01 Delta-E=       -0.000000087334 Grad=7.172D-05 Max rot=    0.0012 deg.
 QCNR:  CnvC1=7.17D-10 CnvC2=7.17D-09
 LinEq1:  Iter=  0 NonCon=     1 RMS=2.41D-06 Max=2.02D-05 NDo=     1
 LinEq1:  Iter=  1 NonCon=     1 RMS=6.63D-07 Max=8.11D-06 NDo=     1
 LinEq1:  Iter=  2 NonCon=     1 RMS=1.69D-07 Max=2.32D-06 NDo=     1
 LinEq1:  Iter=  3 NonCon=     1 RMS=4.64D-08 Max=9.53D-07 NDo=     1
 LinEq1:  Iter=  4 NonCon=     1 RMS=1.37D-08 Max=1.50D-07 NDo=     1
 LinEq1:  Iter=  5 NonCon=     1 RMS=2.96D-09 Max=3.44D-08 NDo=     1
 LinEq1:  Iter=  6 NonCon=     1 RMS=7.58D-10 Max=7.09D-09 NDo=     1
 LinEq1:  Iter=  7 NonCon=     0 RMS=7.52D-11 Max=8.11D-10 NDo=     1
 Linear equations converged to 7.172D-10 7.172D-09 after     7 iterations.
 Angle between quadratic step and gradient=  85.10 degrees.
     ILin= 1 X=0.000D+00 Y=-8.829369955566D-02 DE= 0.00D+00 F= -9.66D-08
     ILin= 2 X=1.000D+00 Y=-8.829374297085D-02 DE=-4.34D-08
 Iteration   9 EE=-0.882937429708477E-01 Delta-E=       -0.000000043415 Grad=4.112D-05 Max rot=    0.0006 deg.
 QCNR:  CnvC1=4.11D-10 CnvC2=4.11D-09
 LinEq1:  Iter=  0 NonCon=     1 RMS=1.48D-06 Max=1.58D-05 NDo=     1
 LinEq1:  Iter=  1 NonCon=     1 RMS=3.13D-07 Max=3.01D-06 NDo=     1
 LinEq1:  Iter=  2 NonCon=     1 RMS=5.72D-08 Max=4.61D-07 NDo=     1
 LinEq1:  Iter=  3 NonCon=     1 RMS=1.08D-08 Max=1.03D-07 NDo=     1
 LinEq1:  Iter=  4 NonCon=     1 RMS=2.66D-09 Max=2.60D-08 NDo=     1
 LinEq1:  Iter=  5 NonCon=     1 RMS=6.02D-10 Max=8.29D-09 NDo=     1
 LinEq1:  Iter=  6 NonCon=     0 RMS=1.98D-10 Max=3.19D-09 NDo=     1
 Linear equations converged to 4.112D-10 4.112D-09 after     6 iterations.
 Angle between quadratic step and gradient=  34.90 degrees.
     ILin= 1 X=0.000D+00 Y=-8.829374297085D-02 DE= 0.00D+00 F= -1.02D-08
     ILin= 2 X=1.000D+00 Y=-8.829374805282D-02 DE=-5.08D-09
 Iteration  10 EE=-0.882937480528199E-01 Delta-E=       -0.000000005082 Grad=3.980D-07 Max rot=    0.0000 deg.
 QCNR:  CnvC1=3.98D-12 CnvC2=3.98D-11
 LinEq1:  Iter=  0 NonCon=     1 RMS=1.62D-08 Max=2.62D-07 NDo=     1
 LinEq1:  Iter=  1 NonCon=     1 RMS=7.01D-09 Max=1.33D-07 NDo=     1
 LinEq1:  Iter=  2 NonCon=     1 RMS=1.56D-09 Max=1.30D-08 NDo=     1
 LinEq1:  Iter=  3 NonCon=     1 RMS=3.21D-10 Max=2.27D-09 NDo=     1
 LinEq1:  Iter=  4 NonCon=     1 RMS=6.49D-11 Max=6.31D-10 NDo=     1
 LinEq1:  Iter=  5 NonCon=     1 RMS=1.42D-11 Max=1.74D-10 NDo=     1
 LinEq1:  Iter=  6 NonCon=     0 RMS=2.90D-12 Max=2.51D-11 NDo=     1
 Linear equations converged to 3.980D-12 3.980D-11 after     6 iterations.
 Angle between quadratic step and gradient=  70.11 degrees.
     ILin= 1 X=0.000D+00 Y=-8.829374805282D-02 DE= 0.00D+00 F= -5.23D-11
     ILin= 2 X=1.000D+00 Y=-8.829374807772D-02 DE=-2.49D-11
 Iteration  11 EE=-0.882937480777173E-01 Delta-E=       -0.000000000025 Grad=5.659D-07 Max rot=    0.0000 deg.
 QCNR:  CnvC1=5.66D-12 CnvC2=5.66D-11
 LinEq1:  Iter=  0 NonCon=     1 RMS=2.03D-08 Max=1.75D-07 NDo=     1
 LinEq1:  Iter=  1 NonCon=     1 RMS=4.82D-09 Max=6.14D-08 NDo=     1
 LinEq1:  Iter=  2 NonCon=     1 RMS=1.07D-09 Max=1.17D-08 NDo=     1
 LinEq1:  Iter=  3 NonCon=     1 RMS=2.00D-10 Max=1.60D-09 NDo=     1
 LinEq1:  Iter=  4 NonCon=     1 RMS=3.79D-11 Max=3.74D-10 NDo=     1
 LinEq1:  Iter=  5 NonCon=     1 RMS=7.97D-12 Max=1.63D-10 NDo=     1
 LinEq1:  Iter=  6 NonCon=     0 RMS=2.62D-12 Max=3.28D-11 NDo=     1
 Linear equations converged to 5.659D-12 5.659D-11 after     6 iterations.
 Angle between quadratic step and gradient=  43.08 degrees.
     ILin= 1 X=0.000D+00 Y=-8.829374807772D-02 DE= 0.00D+00 F= -1.71D-12
     ILin= 2 X=1.000D+00 Y=-8.829374807908D-02 DE=-1.36D-12
 Iteration  12 EE=-0.882937480790815E-01 Delta-E=       -0.000000000001 Grad=1.330D-08 Max rot=    0.0000 deg.
 Rotation gradient small -- convergence achieved.
 SCF Done:  E(UPM6) = -0.882937480791E-01 a.u. after   12 cycles
            Convg  =    0.1330D-07                    65 Fock formations.
              S**2 =  0.7563                  -V/T =  0.9976
 <Sx>= 0.0000 <Sy>= 0.0000 <Sz>= 0.5000 <S**2>= 0.7563 S= 0.5031
 <L.S>= 0.000000000000E+00
 Annihilation of the first spin contaminant:
 S**2 before annihilation     0.7563,   after     0.7500
 Leave Link  508 at Thu Feb 18 18:42:06 2021, MaxMem=    33554432 cpu:         0.2
 (Enter /apps/applications/gaussian/G09.D01/2/default/g09/l801.exe)
 Range of M.O.s used for correlation:     1    55
 NBasis=    55 NAE=    32 NBE=    31 NFC=     0 NFV=     0
 NROrb=     55 NOA=    32 NOB=    31 NVA=    23 NVB=    24
 Leave Link  801 at Thu Feb 18 18:42:06 2021, MaxMem=    33554432 cpu:         0.0
 (Enter /apps/applications/gaussian/G09.D01/2/default/g09/l1101.exe)
 Using compressed storage, NAtomX=    22.
 Will process     23 centers per pass.
 Leave Link 1101 at Thu Feb 18 18:42:06 2021, MaxMem=    33554432 cpu:         0.1
 (Enter /apps/applications/gaussian/G09.D01/2/default/g09/l1102.exe)
 Symmetrizing basis deriv contribution to polar:
 IMax=3 JMax=2 DiffMx= 0.00D+00
 Leave Link 1102 at Thu Feb 18 18:42:06 2021, MaxMem=    33554432 cpu:         0.0
 (Enter /apps/applications/gaussian/G09.D01/2/default/g09/l1110.exe)
 Forming Gx(P) for the SCF density, NAtomX=    22.
 Integral derivatives from FoFJK, PRISM(SPDF).
 Do as many integral derivatives as possible in FoFJK.
 G2DrvN: MDV=      33495261.
 G2DrvN: will do    23 centers at a time, making    1 passes.
 Calling FoFCou, ICntrl=  3107 FMM=F I1Cent=   0 AccDes= 0.00D+00.
 FoFJK:  IHMeth=40 ICntrl=    3107 DoSepK=F KAlg= 0 I1Cent=   0 FoldK=F
 IRaf=         0 NMat=   1 IRICut=       1 DoRegI=T DoRafI=F ISym2E= 0.
 FoFCou: FMM=F IPFlag=           0 FMFlag=      100000 FMFlg1=           0
         NFxFlg=           0 DoJE=F BraDBF=F KetDBF=F FulRan=T
         wScrn=  0.000000 ICntrl=    3107 IOpCl=  1 I1Cent=           0 NGrid=           0
         NMat0=    1 NMatS0=      1 NMatT0=    0 NMatD0=    1 NMtDS0=    0 NMtDT0=    0
 Symmetry not used in FoFCou.
 End of G2Drv F.D. properties file   721 does not exist.
 End of G2Drv F.D. properties file   722 does not exist.
 End of G2Drv F.D. properties file   788 does not exist.
 Leave Link 1110 at Thu Feb 18 18:42:06 2021, MaxMem=    33554432 cpu:         0.1
 (Enter /apps/applications/gaussian/G09.D01/2/default/g09/l1002.exe)
 Minotr:  UHF open shell wavefunction.
          IDoAtm=1111111111111111111111
          Direct CPHF calculation.
          Differentiating once with respect to electric field.
                with respect to dipole field.
          Differentiating once with respect to nuclear coordinates.
          Electric field/nuclear overlap derivatives assumed to be zero.
          Requested convergence is 1.0D-08 RMS, and 1.0D-07 maximum.
          NewPWx=T KeepS1=F KeepF1=F KeepIn=T MapXYZ=F SortEE=F KeepMc=T.
          MDV=      33495207 using IRadAn=       2.
 Keep J ints in memory in canonical form, NReq=889842.
 FoFCou: FMM=F IPFlag=           0 FMFlag=           0 FMFlg1=           0
         NFxFlg=           0 DoJE=F BraDBF=F KetDBF=F FulRan=T
         wScrn=  0.000000 ICntrl=     600 IOpCl=  2 I1Cent=           0 NGrid=           0
         NMat0=    1 NMatS0=    121 NMatT0=    0 NMatD0=    1 NMtDS0=    0 NMtDT0=    0
 Symmetry not used in FoFCou.
          Solving linear equations separately, MaxMat=       0.
          There are    69 degrees of freedom in the 1st order CPHF.  IDoFFX=5 NUNeed=    69.
 LinEq1:  Iter=  0 NonCon=    69 RMS=1.75D-01 Max=1.43D+00 NDo=    69
 AX will form    69 AO Fock derivatives at one time.
 LinEq1:  Iter=  1 NonCon=    69 RMS=2.70D-02 Max=2.03D-01 NDo=    69
 LinEq1:  Iter=  2 NonCon=    69 RMS=4.76D-03 Max=4.98D-02 NDo=    69
 LinEq1:  Iter=  3 NonCon=    69 RMS=7.35D-04 Max=8.18D-03 NDo=    69
 LinEq1:  Iter=  4 NonCon=    69 RMS=1.43D-04 Max=1.64D-03 NDo=    69
 LinEq1:  Iter=  5 NonCon=    69 RMS=2.65D-05 Max=2.93D-04 NDo=    69
 LinEq1:  Iter=  6 NonCon=    68 RMS=7.04D-06 Max=1.17D-04 NDo=    69
 LinEq1:  Iter=  7 NonCon=    65 RMS=1.77D-06 Max=2.77D-05 NDo=    69
 LinEq1:  Iter=  8 NonCon=    23 RMS=4.16D-07 Max=5.30D-06 NDo=    69
 LinEq1:  Iter=  9 NonCon=     3 RMS=7.66D-08 Max=8.47D-07 NDo=    69
 LinEq1:  Iter= 10 NonCon=     2 RMS=1.18D-08 Max=1.36D-07 NDo=    69
 LinEq1:  Iter= 11 NonCon=     0 RMS=2.10D-09 Max=2.05D-08 NDo=    69
 Linear equations converged to 1.000D-08 1.000D-07 after    11 iterations.
 FullF1:  Do perturbations    1 to     3.
 Isotropic polarizability for W=    0.000000       63.18 Bohr**3.
 End of Minotr F.D. properties file   721 does not exist.
 End of Minotr F.D. properties file   722 does not exist.
 End of Minotr F.D. properties file   788 does not exist.
 Leave Link 1002 at Thu Feb 18 18:42:07 2021, MaxMem=    33554432 cpu:         0.6
 (Enter /apps/applications/gaussian/G09.D01/2/default/g09/l601.exe)
 Copying SCF densities to generalized density rwf, IOpCl= 1 IROHF=0.

 **********************************************************************

            Population analysis using the SCF density.

 **********************************************************************

 Alpha  occ. eigenvalues --   -1.23608  -1.18272  -1.10301  -1.07359  -1.03646
 Alpha  occ. eigenvalues --   -0.99239  -0.91962  -0.84371  -0.76720  -0.72844
 Alpha  occ. eigenvalues --   -0.71017  -0.68106  -0.63825  -0.61237  -0.58293
 Alpha  occ. eigenvalues --   -0.57916  -0.57038  -0.56842  -0.55576  -0.54714
 Alpha  occ. eigenvalues --   -0.53153  -0.50668  -0.50200  -0.49363  -0.48865
 Alpha  occ. eigenvalues --   -0.46481  -0.45718  -0.43884  -0.43274  -0.37880
 Alpha  occ. eigenvalues --   -0.35184  -0.33940
 Alpha virt. eigenvalues --    0.00007   0.01455   0.05071   0.05385   0.08998
 Alpha virt. eigenvalues --    0.10166   0.12459   0.12955   0.14122   0.16268
 Alpha virt. eigenvalues --    0.16389   0.17572   0.17950   0.18368   0.18758
 Alpha virt. eigenvalues --    0.19052   0.19793   0.19985   0.21642   0.21840
 Alpha virt. eigenvalues --    0.22316   0.23165   0.23719
  Beta  occ. eigenvalues --   -1.23423  -1.18268  -1.10278  -1.07318  -1.03548
  Beta  occ. eigenvalues --   -0.99037  -0.91689  -0.83996  -0.76193  -0.72642
  Beta  occ. eigenvalues --   -0.70808  -0.68106  -0.63784  -0.61010  -0.58065
  Beta  occ. eigenvalues --   -0.57754  -0.56874  -0.56577  -0.55498  -0.54305
  Beta  occ. eigenvalues --   -0.52780  -0.50223  -0.50009  -0.49216  -0.48588
  Beta  occ. eigenvalues --   -0.45931  -0.45323  -0.43727  -0.42959  -0.37860
  Beta  occ. eigenvalues --   -0.35024
  Beta virt. eigenvalues --   -0.00011   0.01441   0.02017   0.05096   0.06760
  Beta virt. eigenvalues --    0.09003   0.10165   0.12495   0.12946   0.14159
  Beta virt. eigenvalues --    0.16279   0.17379   0.17607   0.17961   0.18368
  Beta virt. eigenvalues --    0.18808   0.19345   0.19879   0.20187   0.21702
  Beta virt. eigenvalues --    0.22063   0.22380   0.23974   0.24522
          Condensed to atoms (all electrons):
               1          2          3          4          5          6
     1  O    6.341894   0.000000   0.000000   0.000000   0.000000   0.000000
     2  C    0.000000   3.666695   0.000000   0.000000   0.000000   0.000000
     3  C    0.000000   0.000000   4.330533   0.000000   0.000000   0.000000
     4  C    0.000000   0.000000   0.000000   4.237346   0.000000   0.000000
     5  C    0.000000   0.000000   0.000000   0.000000   4.299830   0.000000
     6  C    0.000000   0.000000   0.000000   0.000000   0.000000   4.039964
     7  H    0.000000   0.000000   0.000000   0.000000   0.000000   0.000000
     8  C    0.000000   0.000000   0.000000   0.000000   0.000000   0.000000
     9  O    0.000000   0.000000   0.000000   0.000000   0.000000   0.000000
    10  C    0.000000   0.000000   0.000000   0.000000   0.000000   0.000000
    11  H    0.000000   0.000000   0.000000   0.000000   0.000000   0.000000
    12  H    0.000000   0.000000   0.000000   0.000000   0.000000   0.000000
    13  H    0.000000   0.000000   0.000000   0.000000   0.000000   0.000000
    14  H    0.000000   0.000000   0.000000   0.000000   0.000000   0.000000
    15  H    0.000000   0.000000   0.000000   0.000000   0.000000   0.000000
    16  H    0.000000   0.000000   0.000000   0.000000   0.000000   0.000000
    17  H    0.000000   0.000000   0.000000   0.000000   0.000000   0.000000
    18  H    0.000000   0.000000   0.000000   0.000000   0.000000   0.000000
    19  H    0.000000   0.000000   0.000000   0.000000   0.000000   0.000000
    20  H    0.000000   0.000000   0.000000   0.000000   0.000000   0.000000
    21  O    0.000000   0.000000   0.000000   0.000000   0.000000   0.000000
    22  O    0.000000   0.000000   0.000000   0.000000   0.000000   0.000000
               7          8          9         10         11         12
     1  O    0.000000   0.000000   0.000000   0.000000   0.000000   0.000000
     2  C    0.000000   0.000000   0.000000   0.000000   0.000000   0.000000
     3  C    0.000000   0.000000   0.000000   0.000000   0.000000   0.000000
     4  C    0.000000   0.000000   0.000000   0.000000   0.000000   0.000000
     5  C    0.000000   0.000000   0.000000   0.000000   0.000000   0.000000
     6  C    0.000000   0.000000   0.000000   0.000000   0.000000   0.000000
     7  H    0.841692   0.000000   0.000000   0.000000   0.000000   0.000000
     8  C    0.000000   3.442245   0.000000   0.000000   0.000000   0.000000
     9  O    0.000000   0.000000   6.442145   0.000000   0.000000   0.000000
    10  C    0.000000   0.000000   0.000000   4.638535   0.000000   0.000000
    11  H    0.000000   0.000000   0.000000   0.000000   0.700886   0.000000
    12  H    0.000000   0.000000   0.000000   0.000000   0.000000   0.838653
    13  H    0.000000   0.000000   0.000000   0.000000   0.000000   0.000000
    14  H    0.000000   0.000000   0.000000   0.000000   0.000000   0.000000
    15  H    0.000000   0.000000   0.000000   0.000000   0.000000   0.000000
    16  H    0.000000   0.000000   0.000000   0.000000   0.000000   0.000000
    17  H    0.000000   0.000000   0.000000   0.000000   0.000000   0.000000
    18  H    0.000000   0.000000   0.000000   0.000000   0.000000   0.000000
    19  H    0.000000   0.000000   0.000000   0.000000   0.000000   0.000000
    20  H    0.000000   0.000000   0.000000   0.000000   0.000000   0.000000
    21  O    0.000000   0.000000   0.000000   0.000000   0.000000   0.000000
    22  O    0.000000   0.000000   0.000000   0.000000   0.000000   0.000000
              13         14         15         16         17         18
     1  O    0.000000   0.000000   0.000000   0.000000   0.000000   0.000000
     2  C    0.000000   0.000000   0.000000   0.000000   0.000000   0.000000
     3  C    0.000000   0.000000   0.000000   0.000000   0.000000   0.000000
     4  C    0.000000   0.000000   0.000000   0.000000   0.000000   0.000000
     5  C    0.000000   0.000000   0.000000   0.000000   0.000000   0.000000
     6  C    0.000000   0.000000   0.000000   0.000000   0.000000   0.000000
     7  H    0.000000   0.000000   0.000000   0.000000   0.000000   0.000000
     8  C    0.000000   0.000000   0.000000   0.000000   0.000000   0.000000
     9  O    0.000000   0.000000   0.000000   0.000000   0.000000   0.000000
    10  C    0.000000   0.000000   0.000000   0.000000   0.000000   0.000000
    11  H    0.000000   0.000000   0.000000   0.000000   0.000000   0.000000
    12  H    0.000000   0.000000   0.000000   0.000000   0.000000   0.000000
    13  H    0.856138   0.000000   0.000000   0.000000   0.000000   0.000000
    14  H    0.000000   0.857907   0.000000   0.000000   0.000000   0.000000
    15  H    0.000000   0.000000   0.848280   0.000000   0.000000   0.000000
    16  H    0.000000   0.000000   0.000000   0.862996   0.000000   0.000000
    17  H    0.000000   0.000000   0.000000   0.000000   0.830259   0.000000
    18  H    0.000000   0.000000   0.000000   0.000000   0.000000   0.798634
    19  H    0.000000   0.000000   0.000000   0.000000   0.000000   0.000000
    20  H    0.000000   0.000000   0.000000   0.000000   0.000000   0.000000
    21  O    0.000000   0.000000   0.000000   0.000000   0.000000   0.000000
    22  O    0.000000   0.000000   0.000000   0.000000   0.000000   0.000000
              19         20         21         22
     1  O    0.000000   0.000000   0.000000   0.000000
     2  C    0.000000   0.000000   0.000000   0.000000
     3  C    0.000000   0.000000   0.000000   0.000000
     4  C    0.000000   0.000000   0.000000   0.000000
     5  C    0.000000   0.000000   0.000000   0.000000
     6  C    0.000000   0.000000   0.000000   0.000000
     7  H    0.000000   0.000000   0.000000   0.000000
     8  C    0.000000   0.000000   0.000000   0.000000
     9  O    0.000000   0.000000   0.000000   0.000000
    10  C    0.000000   0.000000   0.000000   0.000000
    11  H    0.000000   0.000000   0.000000   0.000000
    12  H    0.000000   0.000000   0.000000   0.000000
    13  H    0.000000   0.000000   0.000000   0.000000
    14  H    0.000000   0.000000   0.000000   0.000000
    15  H    0.000000   0.000000   0.000000   0.000000
    16  H    0.000000   0.000000   0.000000   0.000000
    17  H    0.000000   0.000000   0.000000   0.000000
    18  H    0.000000   0.000000   0.000000   0.000000
    19  H    0.814586   0.000000   0.000000   0.000000
    20  H    0.000000   0.800584   0.000000   0.000000
    21  O    0.000000   0.000000   6.330406   0.000000
    22  O    0.000000   0.000000   0.000000   6.179791
          Atomic-Atomic Spin Densities.
               1          2          3          4          5          6
     1  O    0.016222   0.000000   0.000000   0.000000   0.000000   0.000000
     2  C    0.000000  -0.000339   0.000000   0.000000   0.000000   0.000000
     3  C    0.000000   0.000000   1.039982   0.000000   0.000000   0.000000
     4  C    0.000000   0.000000   0.000000  -0.053456   0.000000   0.000000
     5  C    0.000000   0.000000   0.000000   0.000000   0.004772   0.000000
     6  C    0.000000   0.000000   0.000000   0.000000   0.000000  -0.000901
     7  H    0.000000   0.000000   0.000000   0.000000   0.000000   0.000000
     8  C    0.000000   0.000000   0.000000   0.000000   0.000000   0.000000
     9  O    0.000000   0.000000   0.000000   0.000000   0.000000   0.000000
    10  C    0.000000   0.000000   0.000000   0.000000   0.000000   0.000000
    11  H    0.000000   0.000000   0.000000   0.000000   0.000000   0.000000
    12  H    0.000000   0.000000   0.000000   0.000000   0.000000   0.000000
    13  H    0.000000   0.000000   0.000000   0.000000   0.000000   0.000000
    14  H    0.000000   0.000000   0.000000   0.000000   0.000000   0.000000
    15  H    0.000000   0.000000   0.000000   0.000000   0.000000   0.000000
    16  H    0.000000   0.000000   0.000000   0.000000   0.000000   0.000000
    17  H    0.000000   0.000000   0.000000   0.000000   0.000000   0.000000
    18  H    0.000000   0.000000   0.000000   0.000000   0.000000   0.000000
    19  H    0.000000   0.000000   0.000000   0.000000   0.000000   0.000000
    20  H    0.000000   0.000000   0.000000   0.000000   0.000000   0.000000
    21  O    0.000000   0.000000   0.000000   0.000000   0.000000   0.000000
    22  O    0.000000   0.000000   0.000000   0.000000   0.000000   0.000000
               7          8          9         10         11         12
     1  O    0.000000   0.000000   0.000000   0.000000   0.000000   0.000000
     2  C    0.000000   0.000000   0.000000   0.000000   0.000000   0.000000
     3  C    0.000000   0.000000   0.000000   0.000000   0.000000   0.000000
     4  C    0.000000   0.000000   0.000000   0.000000   0.000000   0.000000
     5  C    0.000000   0.000000   0.000000   0.000000   0.000000   0.000000
     6  C    0.000000   0.000000   0.000000   0.000000   0.000000   0.000000
     7  H   -0.000517   0.000000   0.000000   0.000000   0.000000   0.000000
     8  C    0.000000   0.000261   0.000000   0.000000   0.000000   0.000000
     9  O    0.000000   0.000000   0.000223   0.000000   0.000000   0.000000
    10  C    0.000000   0.000000   0.000000   0.000211   0.000000   0.000000
    11  H    0.000000   0.000000   0.000000   0.000000  -0.000234   0.000000
    12  H    0.000000   0.000000   0.000000   0.000000   0.000000  -0.032350
    13  H    0.000000   0.000000   0.000000   0.000000   0.000000   0.000000
    14  H    0.000000   0.000000   0.000000   0.000000   0.000000   0.000000
    15  H    0.000000   0.000000   0.000000   0.000000   0.000000   0.000000
    16  H    0.000000   0.000000   0.000000   0.000000   0.000000   0.000000
    17  H    0.000000   0.000000   0.000000   0.000000   0.000000   0.000000
    18  H    0.000000   0.000000   0.000000   0.000000   0.000000   0.000000
    19  H    0.000000   0.000000   0.000000   0.000000   0.000000   0.000000
    20  H    0.000000   0.000000   0.000000   0.000000   0.000000   0.000000
    21  O    0.000000   0.000000   0.000000   0.000000   0.000000   0.000000
    22  O    0.000000   0.000000   0.000000   0.000000   0.000000   0.000000
              13         14         15         16         17         18
     1  O    0.000000   0.000000   0.000000   0.000000   0.000000   0.000000
     2  C    0.000000   0.000000   0.000000   0.000000   0.000000   0.000000
     3  C    0.000000   0.000000   0.000000   0.000000   0.000000   0.000000
     4  C    0.000000   0.000000   0.000000   0.000000   0.000000   0.000000
     5  C    0.000000   0.000000   0.000000   0.000000   0.000000   0.000000
     6  C    0.000000   0.000000   0.000000   0.000000   0.000000   0.000000
     7  H    0.000000   0.000000   0.000000   0.000000   0.000000   0.000000
     8  C    0.000000   0.000000   0.000000   0.000000   0.000000   0.000000
     9  O    0.000000   0.000000   0.000000   0.000000   0.000000   0.000000
    10  C    0.000000   0.000000   0.000000   0.000000   0.000000   0.000000
    11  H    0.000000   0.000000   0.000000   0.000000   0.000000   0.000000
    12  H    0.000000   0.000000   0.000000   0.000000   0.000000   0.000000
    13  H   -0.032904   0.000000   0.000000   0.000000   0.000000   0.000000
    14  H    0.000000   0.026459   0.000000   0.000000   0.000000   0.000000
    15  H    0.000000   0.000000   0.032947   0.000000   0.000000   0.000000
    16  H    0.000000   0.000000   0.000000  -0.000880   0.000000   0.000000
    17  H    0.000000   0.000000   0.000000   0.000000  -0.000226   0.000000
    18  H    0.000000   0.000000   0.000000   0.000000   0.000000   0.000000
    19  H    0.000000   0.000000   0.000000   0.000000   0.000000   0.000000
    20  H    0.000000   0.000000   0.000000   0.000000   0.000000   0.000000
    21  O    0.000000   0.000000   0.000000   0.000000   0.000000   0.000000
    22  O    0.000000   0.000000   0.000000   0.000000   0.000000   0.000000
              19         20         21         22
     1  O    0.000000   0.000000   0.000000   0.000000
     2  C    0.000000   0.000000   0.000000   0.000000
     3  C    0.000000   0.000000   0.000000   0.000000
     4  C    0.000000   0.000000   0.000000   0.000000
     5  C    0.000000   0.000000   0.000000   0.000000
     6  C    0.000000   0.000000   0.000000   0.000000
     7  H    0.000000   0.000000   0.000000   0.000000
     8  C    0.000000   0.000000   0.000000   0.000000
     9  O    0.000000   0.000000   0.000000   0.000000
    10  C    0.000000   0.000000   0.000000   0.000000
    11  H    0.000000   0.000000   0.000000   0.000000
    12  H    0.000000   0.000000   0.000000   0.000000
    13  H    0.000000   0.000000   0.000000   0.000000
    14  H    0.000000   0.000000   0.000000   0.000000
    15  H    0.000000   0.000000   0.000000   0.000000
    16  H    0.000000   0.000000   0.000000   0.000000
    17  H    0.000000   0.000000   0.000000   0.000000
    18  H    0.000000   0.000000   0.000000   0.000000
    19  H   -0.000007   0.000000   0.000000   0.000000
    20  H    0.000000   0.000000   0.000000   0.000000
    21  O    0.000000   0.000000   0.001038   0.000000
    22  O    0.000000   0.000000   0.000000  -0.000302
 Mulliken charges and spin densities:
               1          2
     1  O   -0.341894   0.016222
     2  C    0.333305  -0.000339
     3  C   -0.330533   1.039982
     4  C   -0.237346  -0.053456
     5  C   -0.299830   0.004772
     6  C   -0.039964  -0.000901
     7  H    0.158308  -0.000517
     8  C    0.557755   0.000261
     9  O   -0.442145   0.000223
    10  C   -0.638535   0.000211
    11  H    0.299114  -0.000234
    12  H    0.161347  -0.032350
    13  H    0.143862  -0.032904
    14  H    0.142093   0.026459
    15  H    0.151720   0.032947
    16  H    0.137004  -0.000880
    17  H    0.169741  -0.000226
    18  H    0.201366   0.000000
    19  H    0.185414  -0.000007
    20  H    0.199416   0.000000
    21  O   -0.330406   0.001038
    22  O   -0.179791  -0.000302
 Sum of Mulliken charges =   0.00000   1.00000
 Mulliken charges and spin densities with hydrogens summed into heavy atoms:
               1          2
     1  O   -0.341894   0.016222
     2  C    0.333305  -0.000339
     3  C   -0.025324   0.974727
     4  C    0.056466   0.005951
     5  C    0.006915   0.003665
     6  C    0.118344  -0.001418
     8  C    0.557755   0.000261
     9  O   -0.442145   0.000223
    10  C   -0.052339   0.000204
    21  O   -0.031292   0.000805
    22  O   -0.179791  -0.000302
 APT charges:
               1
     1  O   -0.492374
     2  C    0.515934
     3  C   -0.331574
     4  C   -0.272578
     5  C   -0.334125
     6  C   -0.046472
     7  H    0.124833
     8  C    1.178480
     9  O   -0.720209
    10  C   -0.984803
    11  H    0.309758
    12  H    0.173396
    13  H    0.153538
    14  H    0.132595
    15  H    0.153887
    16  H    0.129922
    17  H    0.163845
    18  H    0.243951
    19  H    0.225584
    20  H    0.245958
    21  O   -0.399606
    22  O   -0.169595
 Sum of APT charges =   0.00034
 APT charges with hydrogens summed into heavy atoms:
               1
     1  O   -0.492374
     2  C    0.515934
     3  C   -0.004640
     4  C    0.013904
     5  C   -0.040358
     6  C    0.078361
     8  C    1.178480
     9  O   -0.720209
    10  C   -0.269310
    21  O   -0.089848
    22  O   -0.169595
 Charge=              0.0000 electrons
 Dipole moment (field-independent basis, Debye):
    X=              3.6605    Y=             -0.8970    Z=              0.0146  Tot=              3.7688
 N-N= 3.846516462568D+02 E-N=-6.901932428365D+02  KE=-3.706357646892D+01
  Exact polarizability:  70.803  -1.275  53.288 -11.033 -10.427  65.463
 Approx polarizability:  54.288  -2.633  37.541  -7.288 -10.552  41.421
 Leave Link  601 at Thu Feb 18 18:42:07 2021, MaxMem=    33554432 cpu:         0.0
 (Enter /apps/applications/gaussian/G09.D01/2/default/g09/l701.exe)
 Compute integral second derivatives.
 ... and contract with generalized density number  0.
 Leave Link  701 at Thu Feb 18 18:42:07 2021, MaxMem=    33554432 cpu:         0.1
 (Enter /apps/applications/gaussian/G09.D01/2/default/g09/l702.exe)
 L702 exits ... SP integral derivatives will be done elsewhere.
 Leave Link  702 at Thu Feb 18 18:42:07 2021, MaxMem=    33554432 cpu:         0.0
 (Enter /apps/applications/gaussian/G09.D01/2/default/g09/l703.exe)
 Compute integral second derivatives, UseDBF=F ICtDFT=           0.
 Integral derivatives from FoFJK, PRISM(SPDF).
 Calling FoFJK, ICntrl=    100127 FMM=F ISym2X=0 I1Cent= 0 IOpClX= 1 NMat=1 NMatS=1 NMatT=0.
 FoFJK:  IHMeth=40 ICntrl=  100127 DoSepK=F KAlg= 0 I1Cent=   0 FoldK=F
 IRaf=         0 NMat=   1 IRICut=       1 DoRegI=T DoRafI=F ISym2E= 0.
 FoFCou: FMM=F IPFlag=           0 FMFlag=      100000 FMFlg1=         800
         NFxFlg=           0 DoJE=F BraDBF=F KetDBF=F FulRan=T
         wScrn=  0.000000 ICntrl=  100127 IOpCl=  1 I1Cent=           0 NGrid=           0
         NMat0=    1 NMatS0=      1 NMatT0=    0 NMatD0=    1 NMtDS0=    0 NMtDT0=    0
 Symmetry not used in FoFCou.
 Leave Link  703 at Thu Feb 18 18:42:07 2021, MaxMem=    33554432 cpu:         0.1
 (Enter /apps/applications/gaussian/G09.D01/2/default/g09/l716.exe)
 Dipole        = 1.44016106D+00-3.52896185D-01 5.72533492D-03
 Polarizability= 7.08026779D+01-1.27498424D+00 5.32875257D+01
                -1.10332150D+01-1.04271002D+01 6.54626993D+01
 HyperPolar    = 2.88944403D+01 9.78531335D+00-6.86660987D+00
                -3.05612990D+01 3.63799437D+01-2.45984366D+01
                 3.05805429D+01-6.88860885D+01-1.06968906D+01
                 1.91240217D+02
 -------------------------------------------------------------------
 Center     Atomic                   Forces (Hartrees/Bohr)
 Number     Number              X              Y              Z
 -------------------------------------------------------------------
      1        8           0.000563152    0.000106841   -0.000395371
      2        6          -0.000528013    0.000866853    0.005108092
      3        6          -0.000332791   -0.001622470   -0.006932297
      4        6          -0.000495559   -0.000386879    0.000749601
      5        6          -0.000429237    0.000058665   -0.000524442
      6        6          -0.000589102   -0.000083873   -0.000454326
      7        1           0.000355813    0.000439056    0.000341307
      8        6           0.000543825   -0.000204886    0.000232292
      9        8           0.000758791    0.000192835    0.000496782
     10        6           0.000317820   -0.000427643   -0.000362359
     11        1          -0.000417815   -0.000015020    0.000241427
     12        1           0.001363769    0.000607156    0.000298573
     13        1          -0.000312891    0.000697127    0.000113966
     14        1          -0.000993099   -0.000875893    0.001470556
     15        1           0.000202703   -0.000150530   -0.000238698
     16        1           0.000127043   -0.000198241    0.000515942
     17        1           0.000307974    0.001411005   -0.000441401
     18        1          -0.000498590   -0.000056446    0.000341644
     19        1           0.000680508    0.000382451   -0.000309670
     20        1          -0.000542335   -0.000120369   -0.000205477
     21        8           0.000005814   -0.000193668   -0.000946964
     22        8          -0.000087780   -0.000426070    0.000900824
 -------------------------------------------------------------------
 Cartesian Forces:  Max     0.006932297 RMS     0.001203761
 Leave Link  716 at Thu Feb 18 18:42:07 2021, MaxMem=    33554432 cpu:         0.0
 (Enter /apps/applications/gaussian/G09.D01/2/default/g09/l103.exe)

 GradGradGradGradGradGradGradGradGradGradGradGradGradGradGradGradGradGrad
 Berny optimization.
 Search for a saddle point.
 Step number   1 out of a maximum of  100
 All quantities printed in internal units (Hartrees-Bohrs-Radians)
 Swapping is turned off.
 Second derivative matrix not updated -- analytic derivatives used.
 ITU=  0
     Eigenvalues ---   -0.00087  -0.00042  -0.00030  -0.00008   0.00028
     Eigenvalues ---    0.00054   0.00061   0.00136   0.00249   0.00332
     Eigenvalues ---    0.00479   0.00503   0.00622   0.01306   0.01498
     Eigenvalues ---    0.01705   0.02367   0.03263   0.03612   0.03942
     Eigenvalues ---    0.04420   0.04585   0.04743   0.05371   0.05537
     Eigenvalues ---    0.05786   0.05956   0.06609   0.06936   0.07757
     Eigenvalues ---    0.08534   0.09807   0.10979   0.11586   0.13233
     Eigenvalues ---    0.13698   0.14807   0.18532   0.20675   0.23696
     Eigenvalues ---    0.26219   0.32751   0.38384   0.44702   0.48975
     Eigenvalues ---    0.51108   0.54228   0.56268   0.58553   0.59398
     Eigenvalues ---    0.60904   0.62777   0.63669   0.64021   0.68803
     Eigenvalues ---    0.71021   0.73713   0.82453   1.68505   2.13808
 Eigenvectors required to have negative eigenvalues:
                          Y2        X2        X13       Y15       X15
   1                    0.60896  -0.48571   0.16922  -0.15985   0.14925
                          X11       X12       X3        Z12       Y16
   1                    0.14797   0.14395   0.14323   0.13557  -0.13397
 Eigenvalue     2 is  -4.21D-04 should be greater than     0.000000 Eigenvector:
                          Y11       Z11       X11       Y1        Y2
   1                    0.58200   0.57265   0.43734  -0.19704  -0.15308
                          Z12       X17       X12       Z22       Y20
   1                   -0.13785  -0.07127  -0.06876  -0.06607  -0.06032
 Eigenvalue     3 is  -3.04D-04 should be greater than     0.000000 Eigenvector:
                          Y1        X13       Y2        X1        Z12
   1                    0.34122  -0.32253   0.27970   0.27932   0.23570
                          X2        Y12       X3        X15       Y13
   1                    0.22119  -0.20061  -0.19538  -0.18843  -0.17459
 Eigenvalue     4 is  -7.77D-05 should be greater than     0.000000 Eigenvector:
                          Y19       Z18       Y20       Z20       X18
   1                    0.52340  -0.47310  -0.43409   0.33369  -0.30339
                          X20       Y18       Z19       X19       X13
   1                    0.18777  -0.16267   0.11334   0.08470   0.05905
 RFO step:  Lambda0=8.786807289D-05 Lambda=-2.76384029D-03.
 Linear search not attempted -- option 19 set.
 Maximum step size (   0.300) exceeded in Quadratic search.
    -- Step size scaled by   0.280
 TrRot= -0.001748 -0.007185 -0.002376  1.334582 -0.002893 -1.334196
 Variable       Old X    -DE/DX   Delta X   Delta X   Delta X     New X
                                 (Linear)    (Quad)   (Total)
    X1       -2.87603   0.00056   0.00000  -0.03251  -0.04037  -2.91639
    Y1        4.65092   0.00011   0.00000  -0.08328  -0.10966   4.54125
    Z1        6.43019  -0.00040   0.00000  -0.00894  -0.00047   6.42972
    X2       -1.17320  -0.00053   0.00000   0.02300   0.01543  -1.15777
    Y2        5.50851   0.00087   0.00000  -0.08499  -0.10812   5.40039
    Z2        5.41873   0.00511   0.00000   0.08468   0.09675   5.51548
    X3       -0.56954  -0.00033   0.00000   0.00153  -0.00241  -0.57195
    Y3        3.81140  -0.00162   0.00000   0.04297   0.03264   3.84404
    Z3        1.10160  -0.00693   0.00000  -0.06747  -0.05940   1.04220
    X4        1.86466  -0.00050   0.00000  -0.00097  -0.00409   1.86057
    Y4        2.57207  -0.00039   0.00000   0.02438   0.01637   2.58843
    Z4        0.57226   0.00075   0.00000  -0.02735  -0.02117   0.55109
    X5        1.72723  -0.00043   0.00000  -0.00957  -0.01153   1.71570
    Y5       -0.32521   0.00006   0.00000   0.02407   0.01618  -0.30903
    Z5        0.47630  -0.00052   0.00000   0.00957   0.00751   0.48381
    X6       -0.26803  -0.00059   0.00000   0.00007  -0.00025  -0.26828
    Y6       -1.39511  -0.00008   0.00000   0.00519   0.00162  -1.39348
    Z6       -1.33307  -0.00045   0.00000   0.01095   0.00449  -1.32858
    X7        0.07759   0.00036   0.00000   0.00887   0.00958   0.08716
    Y7       -3.44851   0.00044   0.00000   0.00505   0.00259  -3.44592
    Z7       -1.68980   0.00034   0.00000   0.02488   0.01289  -1.67691
    X8       -0.49487   0.00054   0.00000   0.00694   0.00779  -0.48708
    Y8        0.02244  -0.00020   0.00000  -0.00568  -0.00220   0.02024
    Z8       -3.86307   0.00023   0.00000   0.00499   0.00234  -3.86072
    X9       -2.41062   0.00076   0.00000   0.01530   0.01620  -2.39442
    Y9        1.05584   0.00019   0.00000   0.01139   0.01600   1.07183
    Z9       -4.52774   0.00050   0.00000   0.00746   0.00648  -4.52126
   X10        1.85065   0.00032   0.00000   0.00041   0.00239   1.85305
   Y10       -0.07589  -0.00043   0.00000  -0.02911  -0.02023  -0.09612
   Z10       -5.45685  -0.00036   0.00000  -0.00349  -0.00488  -5.46173
   X11       -4.48106  -0.00042   0.00000   0.06578   0.06329  -4.41777
   Y11       -2.62128  -0.00002   0.00000   0.09863   0.08262  -2.53866
   Z11        2.43860   0.00024   0.00000   0.09820   0.08572   2.52433
   X12       -2.24349   0.00136   0.00000  -0.01553  -0.01926  -2.26275
   Y12        2.71450   0.00061   0.00000   0.05932   0.04747   2.76196
   Z12        1.45560   0.00030   0.00000  -0.10753  -0.10364   1.35196
   X13       -0.75625  -0.00031   0.00000   0.03282   0.02825  -0.72800
   Y13        5.80398   0.00070   0.00000   0.05486   0.04505   5.84903
   Z13        0.82412   0.00011   0.00000   0.00299   0.01659   0.84071
   X14        2.67274  -0.00099   0.00000   0.01274   0.01055   2.68329
   Y14        3.32364  -0.00088   0.00000  -0.00228  -0.00491   3.31873
   Z14       -1.22628   0.00147   0.00000  -0.03071  -0.02192  -1.24821
   X15        3.24763   0.00020   0.00000  -0.00758  -0.01194   3.23569
   Y15        3.14527  -0.00015   0.00000   0.03751   0.02584   3.17111
   Z15        2.05844  -0.00024   0.00000  -0.02621  -0.01745   2.04099
   X16        3.60709   0.00013   0.00000  -0.00802  -0.00936   3.59772
   Y16       -1.09419  -0.00020   0.00000   0.01088   0.00504  -1.08916
   Z16       -0.01972   0.00052   0.00000   0.03501   0.03202   0.01230
   X17        1.27016   0.00031   0.00000  -0.02262  -0.02560   1.24456
   Y17       -1.08683   0.00141   0.00000   0.05477   0.04130  -1.04552
   Z17        2.38797  -0.00044   0.00000   0.01732   0.01288   2.40085
   X18        2.22576  -0.00050   0.00000  -0.00027   0.00162   2.22738
   Y18        1.76679  -0.00006   0.00000  -0.03616  -0.02459   1.74220
   Z18       -6.34907   0.00034   0.00000  -0.01860  -0.01457  -6.36364
   X19        3.54800   0.00068   0.00000   0.00495   0.00644   3.55445
   Y19       -0.63250   0.00038   0.00000  -0.02371  -0.01709  -0.64959
   Z19       -4.41273  -0.00031   0.00000  -0.00817  -0.00997  -4.42270
   X20        1.61590  -0.00054   0.00000  -0.01396  -0.01040   1.60550
   Y20       -1.42524  -0.00012   0.00000  -0.04030  -0.02714  -1.45238
   Z20       -7.02178  -0.00021   0.00000   0.00818   0.00279  -7.01898
   X21       -2.85671   0.00001   0.00000  -0.01882  -0.02044  -2.87715
   Y21       -3.13782  -0.00019   0.00000  -0.00203  -0.01484  -3.15266
   Z21        1.61853  -0.00095   0.00000  -0.00753  -0.02069   1.59784
   X22       -2.78049  -0.00009   0.00000  -0.00479  -0.00591  -2.78641
   Y22       -1.16611  -0.00043   0.00000   0.00362  -0.00393  -1.17004
   Z22       -0.25184   0.00090   0.00000   0.00122  -0.00632  -0.25816
         Item               Value     Threshold  Converged?
 Maximum Force            0.006932     0.000450     NO 
 RMS     Force            0.001204     0.000300     NO 
 Maximum Displacement     0.109665     0.001800     NO 
 RMS     Displacement     0.035970     0.001200     NO 
 Predicted change in Energy=-7.091886D-04
 Lowest energy point so far.  Saving SCF results.
 GradGradGradGradGradGradGradGradGradGradGradGradGradGradGradGradGradGrad

 Leave Link  103 at Thu Feb 18 18:42:07 2021, MaxMem=    33554432 cpu:         0.0
 (Enter /apps/applications/gaussian/G09.D01/2/default/g09/l202.exe)
                          Input orientation:                          
 ---------------------------------------------------------------------
 Center     Atomic      Atomic             Coordinates (Angstroms)
 Number     Number       Type             X           Y           Z
 ---------------------------------------------------------------------
      1          8           0       -1.543289    2.403127    3.402464
      2          6           0       -0.612665    2.857764    2.918668
      3          6           0       -0.302662    2.034179    0.551510
      4          6           0        0.984574    1.369741    0.291627
      5          6           0        0.907909   -0.163532    0.256023
      6          6           0       -0.141969   -0.737400   -0.703056
      7          1           0        0.046126   -1.823502   -0.887385
      8          6           0       -0.257751    0.010713   -2.043007
      9          8           0       -1.267074    0.567190   -2.392548
     10          6           0        0.980590   -0.050865   -2.890224
     11          1           0       -2.337781   -1.343402    1.335816
     12          1           0       -1.197396    1.461568    0.715427
     13          1           0       -0.385241    3.095172    0.444885
     14          1           0        1.419936    1.756197   -0.660523
     15          1           0        1.712255    1.678078    1.080044
     16          1           0        1.903833   -0.576357    0.006511
     17          1           0        0.658595   -0.553267    1.270475
     18          1           0        1.178681    0.921931   -3.367494
     19          1           0        1.880931   -0.343747   -2.340393
     20          1           0        0.849594   -0.768567   -3.714287
     21          8           0       -1.522524   -1.668316    0.845539
     22          8           0       -1.474503   -0.619160   -0.136612
 ---------------------------------------------------------------------
                    Distance matrix (angstroms):
                    1          2          3          4          5
     1  O    0.000000
     2  C    1.143159   0.000000
     3  C    3.131008   2.525436   0.000000
     4  C    4.139478   3.415659   1.471732   0.000000
     5  C    4.743015   4.304654   2.526406   1.535601   0.000000
     6  C    5.355548   5.124806   3.046541   2.588152   1.533428
     7  H    6.228438   6.069127   4.132043   3.530943   2.192158
     8  C    6.085179   5.731481   3.290585   2.973355   2.583537
     9  O    6.085155   5.820996   3.427773   3.594273   3.504202
    10  C    7.210406   6.688932   4.223705   3.484582   3.149103
    11  H    4.351866   4.809495   4.020560   4.414694   3.618363
    12  H    2.868160   2.673115   1.074849   2.224641   2.698946
    13  H    3.250734   2.495533   1.069530   2.208392   3.510991
    14  H    5.070215   4.260930   2.124534   1.116010   2.188056
    15  H    4.064221   3.190212   2.113302   1.116331   2.171983
    16  H    5.682647   5.158160   3.461293   2.171089   1.106592
    17  H    4.258396   3.995970   2.852333   2.182284   1.114972
    18  H    7.445495   6.817053   4.334752   3.691528   3.792285
    19  H    7.228486   6.642697   4.334249   3.266041   2.778602
    20  H    8.150685   7.699647   5.232600   4.542898   4.016570
    21  O    4.807800   5.060742   3.909346   3.977706   2.918717
    22  O    4.654461   4.708131   2.981096   3.191579   2.457163
                    6          7          8          9         10
     6  C    0.000000
     7  H    1.117576   0.000000
     8  C    1.539008   2.189098   0.000000
     9  O    2.412923   3.115352   1.204400   0.000000
    10  C    2.552484   2.833166   1.501684   2.383624   0.000000
    11  H    3.057095   3.294865   4.192446   4.324058   5.526451
    12  H    2.821609   3.860963   3.255283   3.234853   4.475689
    13  H    4.008186   5.114135   3.964814   3.901198   4.783931
    14  H    2.942683   3.840973   2.787940   3.410817   2.903458
    15  H    3.528757   4.348314   4.051478   4.708436   4.391766
    16  H    2.171342   2.409460   3.036053   4.137370   3.085384
    17  H    2.137669   2.577785   3.483809   4.287349   4.203273
    18  H    3.405397   3.869241   2.155904   2.656704   1.101525
    19  H    2.632102   2.769011   2.188159   3.277570   1.094856
    20  H    3.170438   3.122471   2.150968   2.830463   1.100607
    21  O    2.273913   2.342599   3.572462   3.943088   4.778875
    22  O    1.452751   2.080003   2.347673   2.557284   3.732669
                   11         12         13         14         15
    11  H    0.000000
    12  H    3.090829   0.000000
    13  H    4.930225   1.844302   0.000000
    14  H    5.264345   2.971611   2.504685   0.000000
    15  H    5.059403   2.940389   2.609803   1.766671   0.000000
    16  H    4.510733   3.778005   4.348811   2.473843   2.504327
    17  H    3.099493   2.795056   3.883594   3.105159   2.474947
    18  H    6.294313   4.754702   4.658655   2.842868   4.542803
    19  H    5.684309   4.698222   4.971868   2.728414   3.976886
    20  H    5.999445   5.365261   5.809647   4.003148   5.451226
    21  O    1.005279   3.149414   4.913731   4.759578   4.660166
    22  O    1.854137   2.265433   3.914191   3.780818   4.112540
                   16         17         18         19         20
    16  H    0.000000
    17  H    1.774473   0.000000
    18  H    3.762263   4.894635   0.000000
    19  H    2.358514   3.817901   1.774833   0.000000
    20  H    3.872041   4.993063   1.756800   1.769665   0.000000
    21  O    3.692732   2.486199   5.635205   4.846458   5.218093
    22  O    3.381638   2.556236   4.455665   4.023859   4.268900
                   21         22
    21  O    0.000000
    22  O    1.437934   0.000000
 Symmetry turned off by external request.
 Stoichiometry    C7H11O4(2)
 Framework group  C1[X(C7H11O4)]
 Deg. of freedom    60
 Full point group                 C1      NOp   1
 Rotational constants (GHZ):      1.4573672      0.6065892      0.5270843
 Leave Link  202 at Thu Feb 18 18:42:07 2021, MaxMem=    33554432 cpu:         0.0
 (Enter /apps/applications/gaussian/G09.D01/2/default/g09/l301.exe)
 Standard basis: VSTO-6G (5D, 7F)
 Ernie: Thresh=  0.10000D-02 Tol=  0.10000D-05 Strict=F.
  NNHCO=     0 NNPyr=     0 NCTC=     0               EPep=         0.000000000
    EC=       300.437610486  ECS=         4.308097984   EG=         0.323730614
   EHC=         0.001748046  EAt=       -76.388488019  AtH=         3.199295150
 EPDDG=         0.000000000  ECC=       305.071187130 EAtT=        79.587783169
    55 basis functions,   330 primitive gaussians,    55 cartesian basis functions
    32 alpha electrons       31 beta electrons
       nuclear repulsion energy       384.6589702983 Hartrees.
 IExCor=    0 DFT=F Ex=HF Corr=None ExCW=0 ScaHFX=  1.000000
 ScaDFX=  1.000000  1.000000  1.000000  1.000000 ScalE2=  1.000000  1.000000
 IRadAn=      0 IRanWt=     -1 IRanGd=            0 ICorTp=0 IEmpDi=  4
 Integral buffers will be    131072 words long.
 Regular integral format.
 Two-electron integral symmetry is turned off.
 Leave Link  301 at Thu Feb 18 18:42:07 2021, MaxMem=    33554432 cpu:         0.0
 (Enter /apps/applications/gaussian/G09.D01/2/default/g09/l302.exe)
 Do NDO integrals.
 NPDir=0 NMtPBC=     1 NCelOv=     1 NCel=       1 NClECP=     1 NCelD=      1
         NCelK=      1 NCelE2=     1 NClLst=     1 CellRange=     0.0.
 One-electron integrals computed using PRISM.
 NBasis=    55 RedAO= F EigKep=  0.00D+00  NBF=    55
 NBsUse=    55 1.00D-04 EigRej=  0.00D+00 NBFU=    55
 Leave Link  302 at Thu Feb 18 18:42:08 2021, MaxMem=    33554432 cpu:         0.1
 (Enter /apps/applications/gaussian/G09.D01/2/default/g09/l303.exe)
 DipDrv:  MaxL=1.
 Leave Link  303 at Thu Feb 18 18:42:08 2021, MaxMem=    33554432 cpu:         0.0
 (Enter /apps/applications/gaussian/G09.D01/2/default/g09/l401.exe)
 Initial guess from the checkpoint file:  "/nobackup/chmrsh/Scratch/Gau-51625.chk"
 B after Tr=    -0.003303   -0.012883   -0.004314
         Rot=    0.999996   -0.002724    0.000669   -0.000263 Ang=  -0.32 deg.
 Guess basis will be translated and rotated to current coordinates.
 JPrj=0 DoOrth=T DoCkMO=T.
 Initial guess <Sx>= 0.0000 <Sy>= 0.0000 <Sz>= 0.5000 <S**2>= 0.7563 S= 0.5031
 Leave Link  401 at Thu Feb 18 18:42:08 2021, MaxMem=    33554432 cpu:         0.1
 (Enter /apps/applications/gaussian/G09.D01/2/default/g09/l508.exe)
 Direct SCF.
 Tight linear equation convergence will be used.
 UPM6 wavefunction.
 Quadratic Convergence SCF Method.
 Line search only if initial step raises energy.
 Two-electron integral symmetry not used.
 ReadGW:  IGet=1 IStart=       59293 Next=       59293 LGW=           0.
 Keep J ints in memory in canonical form, NReq=909807.
 FoFCou: FMM=F IPFlag=           0 FMFlag=           0 FMFlg1=           0
         NFxFlg=           0 DoJE=F BraDBF=F KetDBF=F FulRan=T
         wScrn=  0.000000 ICntrl=     600 IOpCl=  2 I1Cent=           0 NGrid=           0
         NMat0=    1 NMatS0=    121 NMatT0=    0 NMatD0=    1 NMtDS0=    0 NMtDT0=    0
 Symmetry not used in FoFCou.
 Iteration   1 EE=-0.834047060587864E-01                                Grad=5.148D-02 Max rot=    0.9374 deg.
 Gradient too large for Newton-Raphson -- use scaled steepest descent instead.
 Alpha Gap=     0.340 HL deriv= 1.16D-03
  Beta Gap=     0.351 HL deriv= 2.96D-03
     ILin= 1 X=0.000D+00 Y=-8.340470605879D-02 DE= 0.00D+00 F= -6.43D-03
     ILin= 2 X=3.000D-01 Y=-8.516013759117D-02 DE=-1.76D-03 F= -5.28D-03
     ILin= 3 X=6.000D-01 Y=-8.657079548016D-02 DE=-3.17D-03 F= -4.13D-03
     ILin= 4 X=1.200D+00 Y=-8.835691441789D-02 DE=-4.95D-03 F= -1.83D-03
     ILin= 5 X=2.400D+00 Y=-8.778529098731D-02 DE=-4.38D-03 F=  2.78D-03
     An  expanding polynomial of degree  5 produced  1.6759
 Iteration   2 EE=-0.887914238708163E-01 Delta-E=       -0.005386717812 Grad=9.496D-03 Max rot=    0.2173 deg.
 QCNR:  CnvC1=3.85D-09 CnvC2=3.85D-08
 LinEq1:  Iter=  0 NonCon=     1 RMS=3.22D-04 Max=3.60D-03 NDo=     1
 AX will form     1 AO Fock derivatives at one time.
 LinEq1:  Iter=  1 NonCon=     1 RMS=5.42D-05 Max=7.93D-04 NDo=     1
 LinEq1:  Iter=  2 NonCon=     1 RMS=5.71D-06 Max=7.89D-05 NDo=     1
 LinEq1:  Iter=  3 NonCon=     1 RMS=7.10D-07 Max=1.10D-05 NDo=     1
 LinEq1:  Iter=  4 NonCon=     1 RMS=1.97D-07 Max=3.65D-06 NDo=     1
 LinEq1:  Iter=  5 NonCon=     1 RMS=5.50D-08 Max=1.01D-06 NDo=     1
 LinEq1:  Iter=  6 NonCon=     1 RMS=1.42D-08 Max=1.99D-07 NDo=     1
 LinEq1:  Iter=  7 NonCon=     0 RMS=2.63D-09 Max=2.82D-08 NDo=     1
 Linear equations converged to 3.847D-09 3.847D-08 after     7 iterations.
 Angle between quadratic step and gradient=  43.59 degrees.
     ILin= 1 X=0.000D+00 Y=-8.879142387082D-02 DE= 0.00D+00 F= -3.99D-04
     ILin= 2 X=1.000D+00 Y=-8.899123846811D-02 DE=-2.00D-04 F= -1.79D-07
     Reject lnstep minimum 1.000D+00 FVal=-8.899123850844D-02 Lims=  0.00D+00  1.00D+00
     ILin= 3 X=2.000D+00 Y=-8.879178354573D-02 DE=-3.60D-07 F=  3.99D-04
     An  expanding polynomial of degree  3 produced  1.0005
     Minimum is close to point  2 DX=  4.50D-04 DF= -4.05D-11 DXR=  4.50D-04 DFR=  2.03D-07 which will be used.
 Iteration   3 EE=-0.889912384681111E-01 Delta-E=       -0.000199814597 Grad=3.257D-04 Max rot=    0.0036 deg.
 QCNR:  CnvC1=3.26D-09 CnvC2=3.26D-08
 LinEq1:  Iter=  0 NonCon=     1 RMS=1.17D-05 Max=1.26D-04 NDo=     1
 LinEq1:  Iter=  1 NonCon=     1 RMS=3.49D-06 Max=4.98D-05 NDo=     1
 LinEq1:  Iter=  2 NonCon=     1 RMS=7.40D-07 Max=9.43D-06 NDo=     1
 LinEq1:  Iter=  3 NonCon=     1 RMS=2.24D-07 Max=5.01D-06 NDo=     1
 LinEq1:  Iter=  4 NonCon=     1 RMS=5.97D-08 Max=7.62D-07 NDo=     1
 LinEq1:  Iter=  5 NonCon=     1 RMS=1.23D-08 Max=1.63D-07 NDo=     1
 LinEq1:  Iter=  6 NonCon=     0 RMS=2.20D-09 Max=2.00D-08 NDo=     1
 Linear equations converged to 3.257D-09 3.257D-08 after     6 iterations.
 Angle between quadratic step and gradient=  82.23 degrees.
     ILin= 1 X=0.000D+00 Y=-8.899123846811D-02 DE= 0.00D+00 F= -6.96D-07
     ILin= 2 X=1.000D+00 Y=-8.899155631053D-02 DE=-3.18D-07 F=  5.92D-08
     Accept linear search using points  1 and  2.
     An  expanding polynomial of degree  2 produced  0.9212
     Minimum is close to point  2 DX= -7.88D-02 DF= -2.33D-09 DXR=  8.55D-02 DFR=  7.34D-03 which will be used.
 Iteration   4 EE=-0.889915563105319E-01 Delta-E=       -0.000000317842 Grad=1.794D-04 Max rot=    0.0023 deg.
 QCNR:  CnvC1=1.79D-09 CnvC2=1.79D-08
 LinEq1:  Iter=  0 NonCon=     1 RMS=6.34D-06 Max=5.73D-05 NDo=     1
 LinEq1:  Iter=  1 NonCon=     1 RMS=1.59D-06 Max=1.99D-05 NDo=     1
 LinEq1:  Iter=  2 NonCon=     1 RMS=3.04D-07 Max=3.35D-06 NDo=     1
 LinEq1:  Iter=  3 NonCon=     1 RMS=7.93D-08 Max=1.82D-06 NDo=     1
 LinEq1:  Iter=  4 NonCon=     1 RMS=2.23D-08 Max=3.37D-07 NDo=     1
 LinEq1:  Iter=  5 NonCon=     1 RMS=5.65D-09 Max=6.75D-08 NDo=     1
 LinEq1:  Iter=  6 NonCon=     0 RMS=1.53D-09 Max=1.36D-08 NDo=     1
 Linear equations converged to 1.794D-09 1.794D-08 after     6 iterations.
 Angle between quadratic step and gradient=  74.30 degrees.
     ILin= 1 X=0.000D+00 Y=-8.899155631053D-02 DE= 0.00D+00 F= -1.53D-07
     ILin= 2 X=1.000D+00 Y=-8.899162836099D-02 DE=-7.21D-08 F=  8.48D-09
     Accept linear search using points  1 and  2.
     An  expanding polynomial of degree  2 produced  0.9474
     Minimum is close to point  2 DX= -5.26D-02 DF= -2.23D-10 DXR=  5.56D-02 DFR=  3.10D-03 which will be used.
 Iteration   5 EE=-0.889916283609864E-01 Delta-E=       -0.000000072050 Grad=5.481D-05 Max rot=    0.0006 deg.
 QCNR:  CnvC1=5.48D-10 CnvC2=5.48D-09
 LinEq1:  Iter=  0 NonCon=     1 RMS=2.12D-06 Max=1.88D-05 NDo=     1
 LinEq1:  Iter=  1 NonCon=     1 RMS=6.69D-07 Max=8.16D-06 NDo=     1
 LinEq1:  Iter=  2 NonCon=     1 RMS=1.55D-07 Max=2.32D-06 NDo=     1
 LinEq1:  Iter=  3 NonCon=     1 RMS=4.38D-08 Max=1.02D-06 NDo=     1
 LinEq1:  Iter=  4 NonCon=     1 RMS=1.15D-08 Max=1.38D-07 NDo=     1
 LinEq1:  Iter=  5 NonCon=     1 RMS=2.41D-09 Max=3.21D-08 NDo=     1
[...]
 33,-0.00001961,0.00004543,0.00005497,-0.00029574,0.00008023,0.24977456
 ,0.00032033,-0.00037598,-0.00032462,-0.00028456,0.00043933,0.00027506,
 -0.05585084,-0.05032806,0.00553415,0.01745519,0.00360489,-0.00509476,0
 .00068785,-0.00063778,0.00023145,0.00075754,-0.00085295,-0.00086585,-0
 .00003131,-0.00004189,-0.00002961,0.00009085,0.00021685,-0.00084491,0.
 00002340,-0.00031375,0.00042194,-0.00017077,-0.00010513,0.00029717,-0.
 00025850,-0.00015687,0.00018779,0.05744900,0.06029183,-0.00013495,-0.0
 0000620,0.00004620,0.00018273,-0.00004653,-0.00009266,0.02153859,0.005
 10911,-0.03062124,0.01368590,-0.00141486,0.00539861,-0.00004859,-0.000
 05237,-0.00033777,-0.00000156,-0.00022596,-0.00024931,0.00001572,-0.00
 003962,-0.00000614,0.00065419,-0.00140354,-0.00025649,-0.00017968,0.00
 088774,0.00041666,-0.00024656,0.00033624,0.00014697,0.00007454,0.00023
 703,0.00024946,-0.03415157,0.00087365,0.01747900,-0.00005832,0.0000773
 2,0.00005140,0.00004546,-0.00009151,-0.00003566,-0.04427363,-0.0469456
 9,-0.00712530,0.00116756,0.01962950,0.00556247,-0.00129847,0.00141545,
 0.00071707,-0.00013476,0.00001603,0.00005564,0.00000958,-0.00001825,0.
 00000150,0.00009777,-0.00012042,-0.00005064,-0.00004774,0.00011741,0.0
 0002464,-0.00005029,0.00003439,0.00005814,0.00003732,-0.00000502,-0.00
 002467,-0.00745912,-0.02187415,-0.00166183,0.05186777,0.00015512,-0.00
 017786,-0.00012966,-0.00016227,0.00019519,0.00013255,-0.04436782,-0.21
 639690,-0.03584950,0.00499723,-0.02727923,-0.00848435,0.00109602,-0.00
 075691,-0.00068386,-0.00002878,0.00012719,0.00003499,0.00001415,-0.000
 03534,0.00000261,-0.00005244,0.00000871,-0.00035991,0.00008346,-0.0000
 7171,0.00019203,-0.00001284,0.00004422,0.00021854,-0.00008877,-0.00002
 582,0.00005394,-0.00889750,-0.00946469,-0.00265847,0.04620326,0.254360
 43,-0.00000266,-0.00005348,-0.00003841,0.00002463,0.00004767,0.0000234
 4,-0.00579710,-0.03444508,-0.03214432,0.00071706,-0.01312715,0.0016287
 9,0.00132122,-0.00049095,-0.00013538,0.00006623,0.00021816,-0.00001846
 ,0.00000914,-0.00001365,0.00000018,0.00027962,-0.00087652,0.00009666,-
 0.00005998,0.00058684,0.00005017,-0.00009518,0.00026195,0.00003243,0.0
 0003626,0.00008558,0.00012713,0.00124312,-0.00009806,0.00908659,0.0019
 9749,0.04823655,0.02080042,0.00003962,-0.00006236,-0.00005336,-0.00003
 787,0.00006196,0.00004669,-0.01161654,0.00664602,0.02263699,-0.0368706
 5,-0.00948585,0.03797521,-0.00042500,-0.00849493,0.00912833,-0.0003222
 8,-0.00020743,0.00045725,0.00005552,-0.00005305,-0.00000335,-0.0007910
 8,-0.00219868,-0.00138812,-0.00009588,0.00059361,0.00012327,-0.0004741
 7,0.00033125,0.00027219,-0.00002141,0.00003598,0.00009266,-0.00089419,
 0.00076322,-0.00014695,-0.00012316,0.00032539,0.00052954,0.04964718,0.
 00003654,-0.00004715,-0.00003785,-0.00003927,0.00004994,0.00003687,0.0
 0641346,0.00249715,-0.01268311,-0.00664675,-0.04009221,0.02950154,-0.0
 0965979,-0.01938593,0.02569692,-0.00021233,0.00002004,0.00068009,0.000
 11904,0.00000689,0.00007724,-0.00141193,0.00000415,-0.00100764,-0.0000
 3496,-0.00038697,0.00007129,0.00023740,-0.00008243,0.00023065,-0.00001
 137,0.00000124,0.00004224,0.00038968,-0.00063348,0.00026841,0.00046885
 ,-0.00006642,-0.00042335,0.01092538,0.05794642,-0.00003506,0.00002733,
 0.00002027,0.00003754,-0.00003067,-0.00002314,0.01805773,-0.00943029,-
 0.02044492,0.03369228,0.03852459,-0.18853130,0.00465900,0.01218127,-0.
 00699763,0.00034750,-0.00025988,0.00020742,-0.00009598,0.00000354,-0.0
 0003881,-0.00069020,-0.00107757,0.00118053,0.00002518,0.00045560,-0.00
 051293,0.00055020,0.00079069,-0.00024272,0.00006285,0.00005290,0.00000
 018,0.00049862,-0.00004170,-0.00027721,0.00013945,-0.00056869,-0.00004
 175,-0.05151070,-0.04287947,0.23615022,0.00006289,-0.00007207,-0.00005
 681,-0.00006135,0.00007494,0.00005322,-0.03557170,0.01132057,-0.004963
 79,-0.15818851,-0.02196980,-0.07714089,-0.01304111,-0.01508741,-0.0065
 0717,-0.00008683,-0.00072455,0.00016385,-0.00008270,-0.00011289,-0.000
 07563,0.00005517,-0.00006124,-0.00038096,0.00007011,-0.00002260,0.0001
 8183,-0.00013569,0.00011435,0.00024701,-0.00006697,-0.00000815,0.00005
 362,-0.00130538,0.00107239,0.00067144,0.00007731,0.00054294,-0.0000707
 3,0.00121162,0.00011448,-0.00526110,0.20644571,0.00003935,-0.00003791,
 -0.00002171,-0.00003995,0.00004327,0.00002711,0.01722599,0.00140398,0.
 00452592,-0.01849795,-0.03798191,-0.01022920,-0.02514278,-0.01690754,-
 0.01191052,-0.00086969,-0.00300152,0.00014455,-0.00037988,-0.00008961,
 -0.00029943,0.00004044,-0.00018064,0.00022866,0.00000513,0.00004839,0.
 00003330,0.00008714,0.00001980,0.00002932,-0.00003270,-0.00002284,-0.0
 0002211,0.00067998,-0.00073727,-0.00131689,0.00090396,-0.00016396,0.00
 041094,0.00167700,0.00382360,0.00221711,0.02544490,0.05475273,-0.00001
 653,-0.00001018,-0.00002230,0.00002067,0.00000249,0.00001392,0.0028121
 8,0.00065191,0.00455007,-0.07658330,-0.01308865,-0.07458517,-0.0023533
 3,-0.00391432,0.00227050,-0.00007580,0.00044647,0.00026389,0.00005058,
 -0.00003754,0.00005961,-0.00025253,0.00016184,0.00003838,0.00010523,-0
 .00010773,-0.00002596,0.00022212,0.00012234,0.00009023,0.00002086,0.00
 004441,0.00008841,0.00059960,-0.00058142,-0.00053656,0.00023024,-0.000
 02793,0.00064210,-0.01801004,-0.00005359,-0.02038162,0.09297128,0.0166
 8572,0.08718432,0.00005579,-0.00007204,-0.00004428,-0.00004797,0.00006
 816,0.00003777,0.00007374,-0.00094526,0.00000153,0.00367659,0.00472585
 ,0.00016109,-0.13839238,0.07908769,0.03639911,-0.03426704,0.00923606,-
 0.00261457,-0.00068668,-0.00036156,-0.00002987,-0.00032844,0.00033892,
 -0.00127680,0.00013618,-0.00026645,0.00034032,-0.00038807,0.00009005,0
 .00034748,-0.00008165,0.00007070,-0.00001890,-0.00010353,0.00000454,0.
 00005037,0.00011651,0.00000386,-0.00008745,0.00030731,-0.00000282,-0.0
 0026559,0.00055682,-0.00052082,-0.00002908,0.17753814,-0.00003598,0.00
 004342,0.00005098,0.00003325,-0.00004749,-0.00004129,-0.00077999,-0.00
 314663,0.00007225,0.01647455,-0.03378417,-0.00670479,0.07838281,-0.091
 61407,-0.02739516,0.00242707,0.00376078,0.00052592,-0.00091297,0.00051
 767,-0.00018517,-0.00005715,-0.00034061,0.00087603,0.00000567,0.000161
 84,-0.00016025,0.00017496,-0.00040151,-0.00024137,0.00002940,0.0000183
 9,-0.00012948,-0.00021699,0.00003231,0.00009623,0.00031937,-0.00029102
 ,-0.00024855,0.00030071,-0.00049154,0.00030146,-0.00006076,-0.00082344
 ,-0.00052131,-0.09553828,0.12240141,-0.00004734,0.00007051,0.00002351,
 0.00004019,-0.00006645,-0.00001976,0.00009524,0.00036580,0.00010647,-0
 .00082114,-0.00100435,0.00342195,0.03961881,-0.02870694,-0.04623730,-0
 .01312336,0.00473029,0.00295527,-0.00023201,0.00003785,0.00046115,-0.0
 0151180,-0.00000821,0.00019767,0.00027472,-0.00021431,-0.00007287,0.00
 071852,-0.00005050,0.00010871,0.00007523,0.00004333,-0.00002946,0.0000
 2011,-0.00002377,0.00005570,-0.00002655,0.00002851,0.00004366,-0.00011
 140,0.00063181,0.00024306,-0.00008908,-0.00050217,0.00019779,-0.040965
 93,0.03537604,0.05190601,0.00027485,-0.00031084,-0.00020652,-0.0002239
 7,0.00031669,0.00017240,-0.00000161,0.00016110,0.00002252,0.00054244,-
 0.00752230,0.00702053,-0.03926479,-0.00552068,0.03245118,-0.00276292,-
 0.00027827,-0.02673090,-0.00017457,-0.00023080,-0.00047893,-0.00227532
 ,-0.00160850,-0.00067528,0.00014741,0.00070715,-0.00014816,0.00033642,
 0.00019363,0.00004103,-0.00063967,-0.00005275,0.00000990,-0.00003252,0
 .00037496,-0.00005772,-0.00004362,0.00006941,-0.00003731,0.00014562,-0
 .00071688,0.00019254,-0.00024813,-0.00061937,0.00034544,-0.00557447,0.
 00120081,0.01871309,0.04889244,-0.00001496,-0.00007295,0.00001116,0.00
 003285,0.00003706,-0.00002371,0.00014115,-0.00050126,0.00025025,-0.010
 17462,-0.01932778,0.02627217,-0.00569069,-0.04004483,0.03312572,-0.000
 27021,0.00404012,-0.00439220,-0.00034137,0.00005264,-0.00058123,-0.000
 84275,-0.00003486,0.00016293,0.00006869,0.00011001,-0.00020687,0.00017
 319,-0.00014643,-0.00013205,-0.00008653,0.00015169,-0.00004649,0.00036
 483,-0.00038371,0.00018921,-0.00008983,-0.00000734,0.00009732,-0.00099
 332,-0.00295891,0.00038146,-0.00052840,-0.00025092,0.00044721,0.004679
 44,0.00327733,-0.01047756,0.01319425,0.05602882,-0.00021229,0.00016939
 ,0.00000684,0.00017552,-0.00018886,-0.00003186,-0.00023163,0.00024910,
 -0.00035541,0.00530823,0.01425984,-0.00769462,0.03125177,0.03468360,-0
 .19691520,-0.01483329,-0.00121282,-0.02886938,-0.00029045,-0.00062647,
 -0.00034019,-0.00118381,-0.00011398,-0.00128801,0.00032844,-0.00013673
 ,0.00023535,0.00014009,0.00004116,0.00039966,0.00026692,0.00009196,0.0
 0048738,-0.00011238,0.00006398,0.00019788,0.00008521,-0.00001955,0.000
 09585,0.00017555,0.00035838,-0.00005965,0.00032285,0.00002059,0.000484
 83,0.00921396,-0.00210039,-0.01214888,-0.03124605,-0.04529807,0.247168
 88,-0.00000908,-0.00000121,-0.00000225,0.00000854,-0.00000007,0.000002
 35,-0.00001502,-0.00002670,-0.00002173,-0.00011124,0.00000784,0.000103
 55,-0.00002005,-0.00008700,0.00008503,-0.00034915,0.00105018,0.0012627
 9,0.00002123,0.00012258,-0.00004374,-0.00176493,-0.00613144,0.02178926
 ,-0.00029992,0.00020360,-0.00116027,-0.03779813,-0.00565617,0.00935773
 ,0.00001337,-0.00002692,0.00002231,0.00003448,0.00000714,0.00000996,0.
 00000985,-0.00000885,0.00000008,0.00006138,-0.00001755,-0.00010749,0.0
 0001045,-0.00000783,-0.00003762,0.00004271,0.00001647,-0.00003447,0.00
 001291,0.00000300,-0.00000532,0.03922863,0.00005232,-0.00010536,-0.000
 06932,-0.00004638,0.00009991,0.00005368,-0.00001914,-0.00014135,0.0000
 8173,-0.00007020,-0.00001408,0.00017180,-0.00001522,0.00005145,-0.0000
 0252,0.00124802,-0.00082084,-0.00131553,-0.00000976,-0.00007747,0.0001
 4548,-0.00116108,0.01126760,-0.00525080,0.00052000,-0.00199632,0.00069
 728,-0.00649677,-0.09540590,0.08649251,0.00000643,0.00012718,0.0000750
 0,0.00003922,0.00006089,-0.00002878,0.00000424,0.00001390,-0.00004407,
 -0.00001793,0.00005548,-0.00021463,-0.00000091,0.00000398,-0.00003451,
 -0.00000107,0.00002306,-0.00001610,-0.00000819,0.00000381,0.00001821,0
 .00709880,0.10640903,-0.00006448,0.00010093,0.00007362,0.00006056,-0.0
 0009835,-0.00006356,0.00005318,0.00003214,0.00010876,0.00006314,0.0000
 6180,0.00018935,-0.00009899,-0.00000335,0.00030393,0.00078937,-0.00051
 980,-0.00110195,0.00003166,0.00003564,0.00004194,0.01761984,0.00286761
 ,-0.03218304,-0.00219964,0.00196615,-0.00008351,0.00990908,0.08464836,
 -0.15655942,0.00005112,-0.00004010,-0.00010835,0.00001022,-0.00001340,
 -0.00007031,-0.00001689,-0.00004523,-0.00003991,-0.00009521,-0.0000866
 3,-0.00014607,-0.00004297,-0.00002211,-0.00004535,-0.00002943,0.000034
 62,-0.00012802,0.00001252,0.00002560,-0.00005144,-0.02056248,-0.102454
 48,0.19632382,0.00005749,-0.00011653,-0.00009226,-0.00005139,0.0001100
 5,0.00007252,-0.00007607,-0.00008944,-0.00007318,-0.00034935,0.0000022
 7,0.00006771,-0.00022867,0.00019607,0.00021250,0.00039036,0.00000483,0
 .00086899,-0.00013300,-0.00021604,0.00024006,-0.03044876,0.01279957,0.
 00525809,0.00078414,-0.00002094,0.00124528,-0.19307745,0.02528080,-0.0
 5920230,0.00002250,0.00015052,0.00014649,0.00005768,0.00006295,0.00004
 843,0.00001210,0.00001148,0.00001894,0.00022723,-0.00001376,-0.0000279
 6,0.00007610,-0.00004959,-0.00007088,0.00026397,-0.00003416,-0.0000614
 3,0.00002165,-0.00002789,0.00001007,-0.00142294,0.00390584,-0.00666230
 ,0.23744580,-0.00000149,-0.00001712,0.00000129,0.00000344,0.00001385,-
 0.00000362,0.00002748,-0.00010665,0.00009953,-0.00005552,0.00005913,0.
 00030826,0.00005205,-0.00021402,0.00008493,-0.00032876,-0.00030977,-0.
 00007693,-0.00014489,0.00023086,0.00029943,0.01703584,-0.00079276,-0.0
 0211015,0.00013173,-0.00136406,-0.00100701,0.02598154,-0.03635417,0.01
 091927,0.00000036,-0.00001689,-0.00001558,0.00003996,0.00003204,-0.000
 05363,-0.00000332,-0.00002382,-0.00005146,-0.00005873,-0.00020518,-0.0
 0039230,-0.00003049,-0.00001366,-0.00008569,-0.00003343,0.00026084,-0.
 00003277,-0.00003219,0.00005469,-0.00001179,0.01196256,-0.00079768,0.0
 0977642,-0.03654254,0.03884465,-0.00006113,0.00008574,0.00005581,0.000
 05590,-0.00008501,-0.00004696,-0.00000576,0.00006821,-0.00005450,-0.00
 008757,0.00007633,0.00006310,-0.00018124,0.00016553,-0.00016978,0.0008
 8070,-0.00062287,-0.00205349,0.00029314,0.00008865,-0.00011787,0.01681
 935,-0.00290497,0.00853758,0.00121943,-0.00303815,-0.00239646,-0.05953
 733,0.01097028,-0.05735169,0.00005450,-0.00001588,-0.00004896,0.000042
 00,-0.00000140,0.00002479,-0.00001422,-0.00003804,0.00001945,0.0000133
 6,-0.00025206,-0.00002833,-0.00002156,-0.00004269,-0.00007354,-0.00017
 955,0.00008895,-0.00073690,-0.00006012,-0.00002183,-0.00013058,-0.0167
 3070,0.00730207,-0.01020701,0.06725342,-0.00945095,0.06456742,-0.00000
 823,-0.00001191,-0.00000753,0.00000781,0.00000897,0.00000458,-0.000005
 99,-0.00000134,0.00001199,-0.00004646,0.00002687,0.00004828,-0.0001400
 1,0.00012581,-0.00008156,-0.00088805,-0.00054916,0.00024352,0.00023071
 ,0.00005536,0.00035911,0.00905548,0.01159835,0.00610099,-0.00351334,0.
 00081210,-0.00007306,-0.05743021,-0.05974351,-0.01883079,0.00001305,-0
 .00003169,0.00001992,0.00002320,0.00000430,-0.00000870,0.00000057,-0.0
 0000995,-0.00000721,0.00001013,-0.00002436,-0.00003321,0.00000610,-0.0
 0001281,-0.00002369,0.00004003,-0.00004142,-0.00012112,-0.00002601,-0.
 00001167,-0.00003832,0.00252989,-0.00504094,0.00125806,-0.01350236,-0.
 01801631,-0.00924877,0.06383301,-0.00003196,0.00003302,0.00004197,0.00
 002992,-0.00003465,-0.00003606,0.00004022,0.00002107,0.00011180,0.0000
 6709,0.00000564,0.00009616,-0.00002154,-0.00029351,0.00035230,0.000065
 65,0.00014278,0.00049405,0.00000159,0.00056769,0.00015680,0.00505933,-
 0.02182396,-0.01954242,-0.00018264,0.00160209,0.00034880,-0.06195377,-
 0.17770833,-0.04717498,0.00001024,-0.00008044,-0.00009124,-0.00000363,
 -0.00001646,-0.00006541,-0.00000965,-0.00002170,-0.00004049,-0.0000629
 4,-0.00002267,-0.00007124,-0.00003146,-0.00000244,-0.00002929,-0.00003
 193,0.00011400,-0.00000884,0.00004450,0.00006927,-0.00002447,-0.008388
 50,-0.01894038,0.00363838,-0.00557308,0.00092061,-0.00255224,0.0710055
 5,0.21569547,-0.00007596,0.00012269,0.00008554,0.00006901,-0.00011796,
 -0.00006942,0.00002647,0.00008290,0.00002237,0.00004749,0.00001467,0.0
 0002836,-0.00005893,-0.00005501,0.00038142,0.00139185,0.00095176,-0.00
 108955,0.00016433,0.00007538,-0.00099481,0.00020472,-0.02573410,-0.009
 69808,0.00117133,0.00095451,-0.00096704,-0.02018446,-0.04707559,-0.048
 32909,0.00006095,-0.00004367,-0.00011697,0.00000392,-0.00003071,-0.000
 02078,-0.00000977,-0.00003235,-0.00000512,-0.00002444,-0.00004950,0.00
 000755,-0.00002928,-0.00000539,-0.00002430,-0.00005046,-0.00002464,-0.
 00010739,0.00005277,0.00000247,-0.00005550,0.00587414,0.01489342,0.003
 74999,-0.00861407,-0.00831201,-0.00017895,0.02031790,0.06413242,0.0571
 2017,-0.00014120,0.00144394,0.00155146,0.00007995,-0.00076420,-0.00052
 046,0.00001104,-0.00051969,-0.00007960,-0.00009306,-0.00002890,0.00004
 718,-0.00297573,-0.00014133,0.00159926,-0.02772017,-0.02771457,0.02907
 871,-0.00032752,0.00197879,0.00041403,-0.00373240,0.00266269,-0.000750
 87,0.00141878,-0.00097701,0.00015919,0.00025856,-0.00030701,0.00106869
 ,-0.01618100,0.02687313,0.04886368,-0.00036414,-0.00005309,-0.00007297
 ,-0.00008731,0.00008666,0.00001754,0.00002748,0.00000543,-0.00006147,0
 .00007668,0.00000759,0.00002290,0.00000858,-0.00007035,-0.00024276,0.0
 0081820,0.00043743,0.00001394,-0.00009461,0.00012277,-0.00003585,0.000
 09024,-0.00002436,-0.00011234,-0.00008707,-0.00006952,-0.00009465,0.08
 336864,0.00076380,-0.00103828,-0.00168521,-0.00021620,0.00035253,0.000
 36141,-0.00026180,-0.00054263,-0.00014336,-0.00025771,-0.00003448,0.00
 003377,-0.00083173,0.00037473,0.00090534,-0.02834712,0.02049818,0.0045
 3964,-0.00065921,-0.00043499,-0.00029023,0.00448955,-0.00091575,-0.004
 42562,-0.00027683,-0.00012528,0.00070204,-0.00003744,0.00030924,-0.001
 03986,0.00886174,-0.10336171,-0.08104623,0.00008097,0.00010083,0.00001
 693,-0.00008241,0.00007453,0.00003761,0.00004880,0.00002962,-0.0000905
 0,0.00004924,0.00000370,0.00000307,-0.00012168,-0.00010357,-0.00012047
 ,0.00009659,-0.00013402,0.00017198,0.00007454,-0.00017266,-0.00006368,
 -0.00015371,0.00002095,-0.00000258,0.00002249,0.00003862,-0.00002149,0
 .04713961,0.31599472,0.00204887,-0.00387229,-0.00314243,-0.00085705,0.
 00188083,0.00078914,-0.00015428,-0.00025715,0.00051748,0.00021460,0.00
 006547,0.00035216,-0.00102690,0.00021249,0.00114661,0.02949171,0.01658
 919,-0.03065562,0.00132860,-0.00115495,-0.00146649,0.00399232,-0.00214
 261,0.00179053,-0.00032936,0.00068513,-0.00058670,0.00071154,-0.000068
 34,-0.00256991,0.04584472,-0.10315994,-0.15487872,0.00026548,0.0003501
 5,-0.00025877,-0.00003876,-0.00001792,-0.00016107,-0.00014641,-0.00005
 266,-0.00013000,-0.00003285,0.00005044,-0.00011789,-0.00014905,0.00005
 169,-0.00024046,0.00044496,0.00020640,-0.00058546,0.00005716,-0.000356
 12,0.00015016,-0.00049418,0.00011718,-0.00000150,0.00004985,0.00033594
 ,0.00014262,-0.12442460,-0.00356232,0.26288676,-0.00005765,0.00008928,
 0.00043299,0.00001527,-0.00010250,-0.00017312,-0.00049870,-0.00080583,
 0.00027845,-0.00038660,0.00025272,0.00019407,-0.05075542,0.00494607,0.
 00315817,-0.15280644,0.08072737,0.05799674,-0.01416976,0.01694495,0.01
 199479,-0.00544028,-0.00591998,0.02823419,-0.00132618,0.00208970,-0.00
 084282,0.00068960,-0.00055524,0.00015536,-0.00831836,-0.01353688,0.019
 20965,-0.00010877,-0.00054818,-0.00022460,0.00013707,0.00004302,-0.000
 10647,-0.00006068,0.00008108,-0.00017446,0.00013888,0.00006196,0.00005
 144,-0.00294890,-0.00161952,-0.00216904,0.00007727,-0.00002347,0.00085
 903,-0.00008809,-0.00011045,-0.00005127,-0.00015980,0.00003718,-0.0003
 8990,-0.00010284,0.00003559,-0.00024266,-0.03436150,-0.03039209,0.0431
 9678,0.27055260,0.00039730,-0.00059252,-0.00061322,-0.00024567,0.00046
 514,0.00028415,-0.00203956,-0.00120419,0.00037932,-0.00024477,-0.00027
 974,0.00027026,0.00173426,0.00589813,0.00217880,0.07586567,-0.10775647
 ,-0.02096047,0.03156446,-0.01910552,-0.01972326,-0.01148479,0.00712033
 ,0.00742993,0.00028804,0.00056054,-0.00177576,-0.00002687,0.00047997,0
 .00258268,0.00488197,0.01569966,0.01256499,0.00106703,-0.00073111,-0.0
 0070104,0.00005293,-0.00004074,-0.00007203,-0.00007249,-0.00006055,0.0
 0012158,-0.00002133,0.00011203,-0.00007438,-0.00041169,0.00042943,-0.0
 0005435,0.00053914,0.00003950,-0.00039423,-0.00019333,0.00035457,0.000
 15888,0.00031355,-0.00022236,0.00018050,-0.00016451,-0.00026412,0.0002
 7349,-0.05010108,-0.23093416,0.09409611,-0.05169217,0.33002968,0.00043
 989,-0.00000672,-0.00058056,-0.00016539,0.00005601,0.00014492,-0.00016
 604,0.00002014,0.00038370,-0.00030285,-0.00023523,0.00022484,0.0017279
 2,0.00150943,0.00816650,0.06487940,-0.03016737,-0.05946499,0.01105087,
 -0.01135264,-0.00347483,0.02348995,0.00203133,-0.03661073,0.00017267,-
 0.00194593,0.00348550,-0.00058483,0.00075756,-0.00229586,0.01757494,0.
 03002504,-0.03870642,0.00018713,-0.00028573,-0.00037915,0.00008286,0.0
 0001446,-0.00005952,0.00003962,-0.00007052,0.00004763,0.00000685,-0.00
 000092,-0.00007237,-0.00080978,0.00027910,0.00000107,0.00016222,0.0000
 0815,-0.00055133,0.00014155,-0.00014502,-0.00015231,-0.00014412,-0.000
 00229,0.00032836,0.00006112,-0.00007119,0.00011903,0.04355355,0.085732
 38,-0.07297813,-0.16140014,-0.07616531,0.20242550\\0.00000031,-0.00000
 083,-0.00000023,-0.00000031,0.00000082,0.00000023,-0.00000002,0.000000
 02,-0.00000006,0.00000002,-0.00000001,0.00000005,0.,0.,0.,0.00000003,0
 .,0.,0.,0.,0.,0.00000003,-0.00000005,0.,-0.00000004,0.00000007,-0.0000
 0002,0.,0.,0.00000001,0.,-0.00000002,0.00000002,0.,0.,0.,0.,0.,0.00000
 002,0.,0.,0.,0.,0.,0.,0.,0.,0.,0.,0.,0.,0.,0.,0.,0.,0.,0.,0.,0.,0.,0.,
 0.00000004,0.00000001,-0.00000005,-0.00000004,-0.00000003\\\@


0EVERYBODY IS IGNORANT, ONLY ON DIFFERENT SUBJECTS.
0          WILL ROGERS
 Job cpu time:       0 days  0 hours  1 minutes 44.3 seconds.
 File lengths (MBytes):  RWF=     57 Int=      0 D2E=      0 Chk=      2 Scr=      1
 Normal termination of Gaussian 09 at Thu Feb 18 18:44:03 2021.
