 Entering Gaussian System, Link 0=g09
 Initial command:
 /apps/applications/gaussian/G09.D01/2/default/g09/l1.exe "/nobackup/chmrsh/Scratch/Gau-53536.inp" -scrdir="/nobackup/chmrsh/Scratch/"
 Entering Link 1 = /apps/applications/gaussian/G09.D01/2/default/g09/l1.exe PID=     53537.
  
 Copyright (c) 1988,1990,1992,1993,1995,1998,2003,2009,2013,
            Gaussian, Inc.  All Rights Reserved.
  
 This is part of the Gaussian(R) 09 program.  It is based on
 the Gaussian(R) 03 system (copyright 2003, Gaussian, Inc.),
 the Gaussian(R) 98 system (copyright 1998, Gaussian, Inc.),
 the Gaussian(R) 94 system (copyright 1995, Gaussian, Inc.),
 the Gaussian 92(TM) system (copyright 1992, Gaussian, Inc.),
 the Gaussian 90(TM) system (copyright 1990, Gaussian, Inc.),
 the Gaussian 88(TM) system (copyright 1988, Gaussian, Inc.),
 the Gaussian 86(TM) system (copyright 1986, Carnegie Mellon
 University), and the Gaussian 82(TM) system (copyright 1983,
 Carnegie Mellon University). Gaussian is a federally registered
 trademark of Gaussian, Inc.
  
 This software contains proprietary and confidential information,
 including trade secrets, belonging to Gaussian, Inc.
  
 This software is provided under written license and may be
 used, copied, transmitted, or stored only in accord with that
 written license.
  
 The following legend is applicable only to US Government
 contracts under FAR:
  
                    RESTRICTED RIGHTS LEGEND
  
 Use, reproduction and disclosure by the US Government is
 subject to restrictions as set forth in subparagraphs (a)
 and (c) of the Commercial Computer Software - Restricted
 Rights clause in FAR 52.227-19.
  
 Gaussian, Inc.
 340 Quinnipiac St., Bldg. 40, Wallingford CT 06492
  
  
 ---------------------------------------------------------------
 Warning -- This program may not be used in any manner that
 competes with the business of Gaussian, Inc. or will provide
 assistance to any competitor of Gaussian, Inc.  The licensee
 of this program is prohibited from giving any competitor of
 Gaussian, Inc. access to this program.  By using this program,
 the user acknowledges that Gaussian, Inc. is engaged in the
 business of creating and licensing software in the field of
 computational chemistry and represents and warrants to the
 licensee that it is not a competitor of Gaussian, Inc. and that
 it will not use this program in any manner prohibited above.
 ---------------------------------------------------------------
  

 Cite this work as:
 Gaussian 09, Revision D.01,
 M. J. Frisch, G. W. Trucks, H. B. Schlegel, G. E. Scuseria, 
 M. A. Robb, J. R. Cheeseman, G. Scalmani, V. Barone, B. Mennucci, 
 G. A. Petersson, H. Nakatsuji, M. Caricato, X. Li, H. P. Hratchian, 
 A. F. Izmaylov, J. Bloino, G. Zheng, J. L. Sonnenberg, M. Hada, 
 M. Ehara, K. Toyota, R. Fukuda, J. Hasegawa, M. Ishida, T. Nakajima, 
 Y. Honda, O. Kitao, H. Nakai, T. Vreven, J. A. Montgomery, Jr., 
 J. E. Peralta, F. Ogliaro, M. Bearpark, J. J. Heyd, E. Brothers, 
 K. N. Kudin, V. N. Staroverov, T. Keith, R. Kobayashi, J. Normand, 
 K. Raghavachari, A. Rendell, J. C. Burant, S. S. Iyengar, J. Tomasi, 
 M. Cossi, N. Rega, J. M. Millam, M. Klene, J. E. Knox, J. B. Cross, 
 V. Bakken, C. Adamo, J. Jaramillo, R. Gomperts, R. E. Stratmann, 
 O. Yazyev, A. J. Austin, R. Cammi, C. Pomelli, J. W. Ochterski, 
 R. L. Martin, K. Morokuma, V. G. Zakrzewski, G. A. Voth, 
 P. Salvador, J. J. Dannenberg, S. Dapprich, A. D. Daniels, 
 O. Farkas, J. B. Foresman, J. V. Ortiz, J. Cioslowski, 
 and D. J. Fox, Gaussian, Inc., Wallingford CT, 2013.
 
 ******************************************
 Gaussian 09:  ES64L-G09RevD.01 24-Apr-2013
                18-Feb-2021 
 ******************************************
 %nprocshared=1
 Will use up to    1 processors via shared memory.
 ----------------------------------------------------------------------
 #P pm6 scf=qc opt(calcall, ts, noeigentest, cartesian,maxcycle=100) No
 Symm
 ----------------------------------------------------------------------
 1/5=1,6=100,10=4,11=1,14=-1,18=10,26=1,38=1/1,3;
 2/12=2,15=1,17=6,18=5,29=2,40=1/2;
 3/5=2,16=1,25=1,41=3900000,71=2,140=1/1,2,3;
 4/35=1/1;
 5/5=2,8=3,35=1,38=5/8;
 8/6=4,10=90,11=11/1;
 11/6=1,8=1,9=11,15=111,16=1,31=1/1,2,10;
 10/6=1,31=1/2;
 6/7=2,8=2,9=2,10=2,18=1,28=1/1;
 7/7=1,10=1,25=1,30=1/1,2,3,16;
 1/5=1,6=100,10=4,11=1,14=-1,18=10,26=1/3(3);
 2/15=1,29=1/2;
 7/7=1,8=1,9=1,25=1,30=1,44=-1/16;
 99/12=1/99;
 2/15=1,29=1/2;
 3/5=2,16=1,25=1,41=3900000,71=2,135=20,140=1/1,2,3;
 4/5=5,16=3,35=1/1;
 5/5=2,8=3,35=1,38=5/8;
 8/6=4,10=90,11=11/1;
 11/6=1,8=1,9=11,15=111,16=1,31=1/1,2,10;
 10/6=1,31=1/2;
 7/7=1,10=1,25=1,30=1/1,2,3,16;
 1/5=1,6=100,10=4,11=1,14=-1,18=10,26=1/3(-8);
 2/15=1,29=1/2;
 6/7=2,8=2,9=2,10=2,18=1,19=2,28=1/1;
 7/7=1,8=1,9=1,25=1,30=1,44=-1/16;
 99/12=1/99;
 Leave Link    1 at Thu Feb 18 19:17:40 2021, MaxMem=           0 cpu:         0.0
 (Enter /apps/applications/gaussian/G09.D01/2/default/g09/l101.exe)
 ------------------------------
 Gaussian input prepared by ASE
 ------------------------------
 Symbolic Z-matrix:
 Charge =  0 Multiplicity = 2
 O                    -2.81359   0.67184   3.21949 
 C                    -3.26184   1.64267   3.61911 
 C                     0.50375   2.39622   0.5477 
 C                     1.52888   1.45486   0.07124 
 C                     1.12638  -0.0219    0.19616 
 C                    -0.11935  -0.42828  -0.60033 
 H                    -0.18451  -1.54062  -0.68047 
 C                    -0.18645   0.21761  -1.99548 
 O                    -0.90024   1.152    -2.25279 
 C                     0.70926  -0.4322   -3.01264 
 H                    -2.03849  -0.62677   1.66455 
 H                    -0.51412   2.08549   0.66986 
 H                     0.74507   3.41811   0.73544 
 H                     1.77077   1.70172  -0.98953 
 H                     2.48127   1.61496   0.62494 
 H                     1.97877  -0.66292  -0.10008 
 H                     0.92712  -0.25326   1.26541 
 H                     0.78795   0.18827  -3.91898 
 H                     1.72516  -0.60112  -2.63769 
 H                     0.30738  -1.40401  -3.33171 
 O                    -1.77354  -1.10069   0.81531 
 O                    -1.31948   0.03556   0.07397 
 
 NAtoms=     22 NQM=       22 NQMF=       0 NMMI=      0 NMMIF=      0
                NMic=       0 NMicF=      0.
                    Isotopes and Nuclear Properties:
 (Nuclear quadrupole moments (NQMom) in fm**2, nuclear magnetic moments (NMagM)
  in nuclear magnetons)

  Atom         1           2           3           4           5           6           7           8           9          10
 IAtWgt=          16          12          12          12          12          12           1          12          16          12
 AtmWgt=  15.9949146  12.0000000  12.0000000  12.0000000  12.0000000  12.0000000   1.0078250  12.0000000  15.9949146  12.0000000
 NucSpn=           0           0           0           0           0           0           1           0           0           0
 AtZEff=   0.0000000   0.0000000   0.0000000   0.0000000   0.0000000   0.0000000   0.0000000   0.0000000   0.0000000   0.0000000
 NQMom=    0.0000000   0.0000000   0.0000000   0.0000000   0.0000000   0.0000000   0.0000000   0.0000000   0.0000000   0.0000000
 NMagM=    0.0000000   0.0000000   0.0000000   0.0000000   0.0000000   0.0000000   2.7928460   0.0000000   0.0000000   0.0000000
 AtZNuc=   8.0000000   6.0000000   6.0000000   6.0000000   6.0000000   6.0000000   1.0000000   6.0000000   8.0000000   6.0000000

  Atom        11          12          13          14          15          16          17          18          19          20
 IAtWgt=           1           1           1           1           1           1           1           1           1           1
 AtmWgt=   1.0078250   1.0078250   1.0078250   1.0078250   1.0078250   1.0078250   1.0078250   1.0078250   1.0078250   1.0078250
 NucSpn=           1           1           1           1           1           1           1           1           1           1
 AtZEff=   0.0000000   0.0000000   0.0000000   0.0000000   0.0000000   0.0000000   0.0000000   0.0000000   0.0000000   0.0000000
 NQMom=    0.0000000   0.0000000   0.0000000   0.0000000   0.0000000   0.0000000   0.0000000   0.0000000   0.0000000   0.0000000
 NMagM=    2.7928460   2.7928460   2.7928460   2.7928460   2.7928460   2.7928460   2.7928460   2.7928460   2.7928460   2.7928460
 AtZNuc=   1.0000000   1.0000000   1.0000000   1.0000000   1.0000000   1.0000000   1.0000000   1.0000000   1.0000000   1.0000000

  Atom        21          22
 IAtWgt=          16          16
 AtmWgt=  15.9949146  15.9949146
 NucSpn=           0           0
 AtZEff=   0.0000000   0.0000000
 NQMom=    0.0000000   0.0000000
 NMagM=    0.0000000   0.0000000
 AtZNuc=   8.0000000   8.0000000
 Leave Link  101 at Thu Feb 18 19:17:40 2021, MaxMem=    33554432 cpu:         0.1
 (Enter /apps/applications/gaussian/G09.D01/2/default/g09/l103.exe)

 GradGradGradGradGradGradGradGradGradGradGradGradGradGradGradGradGradGrad
 Berny optimization.
 Initialization pass.
 No Z-matrix variables, so optimization will use Cartesian coordinates.
 Trust Radius=3.00D-01 FncErr=1.00D-07 GrdErr=1.00D-07
 Number of steps in this run=    100 maximum allowed number of steps=    132.
 Search for a saddle point of order  1.
 GradGradGradGradGradGradGradGradGradGradGradGradGradGradGradGradGradGrad

 Leave Link  103 at Thu Feb 18 19:17:40 2021, MaxMem=    33554432 cpu:         0.0
 (Enter /apps/applications/gaussian/G09.D01/2/default/g09/l202.exe)
 ---------------------------------------------------------------------------------------------------
                            Z-MATRIX (ANGSTROMS AND DEGREES)
   CD    Cent   Atom    N1       Length/X        N2       Alpha/Y        N3        Beta/Z          J
 ---------------------------------------------------------------------------------------------------
      1      1  O        0  -2.813588          0.671840          3.219493
      2      2  C        0  -3.261841          1.642673          3.619112
      3      3  C        0   0.503748          2.396215          0.547699
      4      4  C        0   1.528883          1.454859          0.071237
      5      5  C        0   1.126383         -0.021899          0.196155
      6      6  C        0  -0.119352         -0.428277         -0.600333
      7      7  H        0  -0.184508         -1.540621         -0.680470
      8      8  C        0  -0.186449          0.217612         -1.995483
      9      9  O        0  -0.900241          1.152003         -2.252785
     10     10  C        0   0.709264         -0.432200         -3.012643
     11     11  H        0  -2.038488         -0.626770          1.664550
     12     12  H        0  -0.514120          2.085486          0.669862
     13     13  H        0   0.745071          3.418108          0.735441
     14     14  H        0   1.770769          1.701723         -0.989532
     15     15  H        0   2.481271          1.614964          0.624942
     16     16  H        0   1.978773         -0.662917         -0.100083
     17     17  H        0   0.927120         -0.253264          1.265407
     18     18  H        0   0.787948          0.188269         -3.918978
     19     19  H        0   1.725156         -0.601119         -2.637691
     20     20  H        0   0.307384         -1.404007         -3.331715
     21     21  O        0  -1.773537         -1.100685          0.815309
     22     22  O        0  -1.319477          0.035555          0.073965
 ---------------------------------------------------------------------------------------------------
                         Z-Matrix orientation:                         
 ---------------------------------------------------------------------
 Center     Atomic      Atomic             Coordinates (Angstroms)
 Number     Number       Type             X           Y           Z
 ---------------------------------------------------------------------
      1          8           0       -2.813588    0.671840    3.219493
      2          6           0       -3.261841    1.642673    3.619112
      3          6           0        0.503748    2.396215    0.547699
      4          6           0        1.528883    1.454859    0.071237
      5          6           0        1.126383   -0.021899    0.196155
      6          6           0       -0.119352   -0.428277   -0.600333
      7          1           0       -0.184508   -1.540621   -0.680470
      8          6           0       -0.186449    0.217612   -1.995483
      9          8           0       -0.900241    1.152003   -2.252785
     10          6           0        0.709264   -0.432200   -3.012643
     11          1           0       -2.038488   -0.626770    1.664550
     12          1           0       -0.514120    2.085486    0.669862
     13          1           0        0.745071    3.418108    0.735441
     14          1           0        1.770769    1.701723   -0.989532
     15          1           0        2.481271    1.614964    0.624942
     16          1           0        1.978773   -0.662917   -0.100083
     17          1           0        0.927120   -0.253264    1.265407
     18          1           0        0.787948    0.188269   -3.918978
     19          1           0        1.725156   -0.601119   -2.637691
     20          1           0        0.307384   -1.404007   -3.331715
     21          8           0       -1.773537   -1.100685    0.815309
     22          8           0       -1.319477    0.035555    0.073965
 ---------------------------------------------------------------------
                    Distance matrix (angstroms):
                    1          2          3          4          5
     1  O    0.000000
     2  C    1.141553   0.000000
     3  C    4.595288   4.917425   0.000000
     4  C    5.420488   5.964372   1.471077   0.000000
     5  C    5.014501   5.808954   2.521613   1.535716   0.000000
     6  C    4.802107   5.654006   3.111910   2.591117   1.533425
     7  H    5.197765   6.171689   4.181001   3.531809   2.189389
     8  C    5.856975   6.558392   3.419131   2.957106   2.565964
     9  O    5.816982   6.347999   3.370751   3.375418   3.388592
    10  C    7.243543   8.003433   4.551725   3.707166   3.261705
    11  H    2.169105   3.235317   4.104724   4.426958   3.540969
    12  H    3.713027   4.055136   1.071229   2.220339   2.712327
    13  H    5.135811   5.246244   1.066653   2.215824   3.502838
    14  H    6.308160   6.824240   2.109678   1.115653   2.189055
    15  H    5.971324   6.476817   2.127655   1.113223   2.167695
    16  H    5.980626   6.827312   3.457399   2.171803   1.106901
    17  H    4.320552   5.165452   2.777425   2.169296   1.111996
    18  H    8.010160   8.679797   4.990691   4.251476   4.134372
    19  H    7.518459   8.309773   4.541207   3.406444   2.953762
    20  H    7.547710   8.386634   5.434160   4.609258   3.876448
    21  O    3.162855   4.195518   4.181621   4.241512   3.155419
    22  O    3.539996   4.350135   3.020147   3.182387   2.449584
                    6          7          8          9         10
     6  C    0.000000
     7  H    1.117129   0.000000
     8  C    1.538869   2.195597   0.000000
     9  O    2.416127   3.199167   1.203657   0.000000
    10  C    2.550659   2.732482   1.503054   2.382769   0.000000
    11  H    2.975261   3.125937   4.187944   4.450298   5.428087
    12  H    2.843983   3.883387   3.271144   3.092304   4.625609
    13  H    4.162475   5.240030   4.309159   4.095336   5.373480
    14  H    2.874184   3.798871   2.654284   3.005378   3.126243
    15  H    3.526949   4.332227   3.991986   4.464333   4.534635
    16  H    2.169662   2.405618   3.009329   4.027007   3.185575
    17  H    2.146327   2.584462   3.477810   4.206150   4.287329
    18  H    3.495243   3.797718   2.156419   2.560266   1.101188
    19  H    2.753709   2.891400   2.176462   3.180299   1.095974
    20  H    2.931655   2.699948   2.158480   3.025828   1.098965
    21  O    2.278706   2.226188   3.486733   3.905182   4.611333
    22  O    1.452624   2.083664   2.366329   2.614571   3.723135
                   11         12         13         14         15
    11  H    0.000000
    12  H    3.266410   0.000000
    13  H    4.997247   1.834596   0.000000
    14  H    5.193888   2.849839   2.640751   0.000000
    15  H    5.151153   3.032454   2.505580   1.766031   0.000000
    16  H    4.387895   3.789598   4.344524   2.534937   2.442725
    17  H    3.015568   2.810978   3.713890   3.101365   2.513137
    18  H    6.311007   5.133446   5.665449   3.440659   5.054702
    19  H    5.716201   4.813742   5.337862   2.832241   4.015907
    20  H    5.574036   5.372527   6.323458   4.156065   5.430940
    21  O    1.007971   3.429136   5.173901   4.865496   5.051176
    22  O    1.866979   2.281646   4.017658   3.668346   4.152565
                   16         17         18         19         20
    16  H    0.000000
    17  H    1.771540   0.000000
    18  H    4.089809   5.205014   0.000000
    19  H    2.550999   3.999005   1.772904   0.000000
    20  H    3.712977   4.779311   1.763849   1.770982   0.000000
    21  O    3.887083   2.866053   5.534987   4.941015   4.649736
    22  O    3.375886   2.559326   4.517539   4.126527   4.039514
                   21         22
    21  O    0.000000
    22  O    1.430665   0.000000
 Symmetry turned off by external request.
 Stoichiometry    C7H11O4(2)
 Framework group  C1[X(C7H11O4)]
 Deg. of freedom    60
 Full point group                 C1      NOp   1
 Rotational constants (GHZ):      1.5198293      0.5407827      0.4847451
 Leave Link  202 at Thu Feb 18 19:17:40 2021, MaxMem=    33554432 cpu:         0.0
 (Enter /apps/applications/gaussian/G09.D01/2/default/g09/l301.exe)
 Standard basis: VSTO-6G (5D, 7F)
 Ernie: Thresh=  0.10000D-02 Tol=  0.10000D-05 Strict=F.
  NNHCO=     0 NNPyr=     0 NCTC=     0               EPep=         0.000000000
    EC=       296.307099487  ECS=         4.314678283   EG=         0.323601461
   EHC=         0.001766912  EAt=       -76.388488019  AtH=         3.199295150
 EPDDG=         0.000000000  ECC=       300.947146143 EAtT=        79.587783169
    55 basis functions,   330 primitive gaussians,    55 cartesian basis functions
    32 alpha electrons       31 beta electrons
       nuclear repulsion energy       380.5349293119 Hartrees.
 IExCor=    0 DFT=F Ex=HF Corr=None ExCW=0 ScaHFX=  1.000000
 ScaDFX=  1.000000  1.000000  1.000000  1.000000 ScalE2=  1.000000  1.000000
 IRadAn=      0 IRanWt=     -1 IRanGd=            0 ICorTp=0 IEmpDi=  4
 Integral buffers will be    131072 words long.
 Regular integral format.
 Two-electron integral symmetry is turned off.
 Leave Link  301 at Thu Feb 18 19:17:40 2021, MaxMem=    33554432 cpu:         0.0
 (Enter /apps/applications/gaussian/G09.D01/2/default/g09/l302.exe)
 Do NDO integrals.
 NPDir=0 NMtPBC=     1 NCelOv=     1 NCel=       1 NClECP=     1 NCelD=      1
         NCelK=      1 NCelE2=     1 NClLst=     1 CellRange=     0.0.
 One-electron integrals computed using PRISM.
 NBasis=    55 RedAO= F EigKep=  0.00D+00  NBF=    55
 NBsUse=    55 1.00D-04 EigRej=  0.00D+00 NBFU=    55
 Leave Link  302 at Thu Feb 18 19:17:40 2021, MaxMem=    33554432 cpu:         0.0
 (Enter /apps/applications/gaussian/G09.D01/2/default/g09/l303.exe)
 DipDrv:  MaxL=1.
 Leave Link  303 at Thu Feb 18 19:17:40 2021, MaxMem=    33554432 cpu:         0.0
 (Enter /apps/applications/gaussian/G09.D01/2/default/g09/l401.exe)
 Simple Huckel Guess.
 JPrj=0 DoOrth=F DoCkMO=F.
 Initial guess <Sx>= 0.0000 <Sy>= 0.0000 <Sz>= 0.5000 <S**2>= 0.7500 S= 0.5000
 Leave Link  401 at Thu Feb 18 19:17:40 2021, MaxMem=    33554432 cpu:         0.1
 (Enter /apps/applications/gaussian/G09.D01/2/default/g09/l508.exe)
 Direct SCF.
 Tight linear equation convergence will be used.
 UPM6 wavefunction.
 Quadratic Convergence SCF Method.
 Line search only if initial step raises energy.
 Two-electron integral symmetry not used.
 ReadGW:  IGet=1 IStart=       59293 Next=       59293 LGW=           0.
 Keep J ints in memory in canonical form, NReq=909807.
 FoFCou: FMM=F IPFlag=           0 FMFlag=           0 FMFlg1=           0
         NFxFlg=           0 DoJE=F BraDBF=F KetDBF=F FulRan=T
         wScrn=  0.000000 ICntrl=     600 IOpCl=  2 I1Cent=           0 NGrid=           0
         NMat0=    1 NMatS0=    121 NMatT0=    0 NMatD0=    1 NMtDS0=    0 NMtDT0=    0
 Symmetry not used in FoFCou.
 Iteration   1 EE= 0.486776924365643                                    Grad=5.457D-01 Max rot=    6.4421 deg.
 Gradient too large for Newton-Raphson -- use scaled steepest descent instead.
 Alpha Gap=     0.384 HL deriv= 4.57D-05
  Beta Gap=     0.429 HL deriv= 2.91D-02
     ILin= 1 X=0.000D+00 Y= 4.867769243656D-01 DE= 0.00D+00 F= -7.09D-01
     ILin= 2 X=3.000D-01 Y= 2.929128080586D-01 DE=-1.94D-01 F= -5.81D-01
     ILin= 3 X=5.000D-01 Y= 1.857346941784D-01 DE=-3.01D-01 F= -4.90D-01
     ILin= 4 X=7.000D-01 Y= 9.728364103978D-02 DE=-3.89D-01 F= -3.94D-01
     ILin= 5 X=1.000D+00 Y= 1.657045104366D-03 DE=-4.85D-01 F= -2.42D-01
     ILin= 6 X=1.600D+00 Y=-4.651292134787D-02 DE=-5.33D-01 F=  8.61D-02
     Accept linear search using points  5 and  6.
     An  expanding polynomial of degree  6 produced  1.3665
 Iteration   2 EE=-0.512625527117621E-01 Delta-E=       -0.538039477077 Grad=1.447D-01 Max rot=    1.7648 deg.
 Gradient too large for Newton-Raphson -- use scaled steepest descent instead.
 Alpha Gap=     0.368 HL deriv= 6.83D-05
  Beta Gap=     0.408 HL deriv= 3.07D-03
     ILin= 1 X=0.000D+00 Y=-5.126255271176D-02 DE= 0.00D+00 F= -5.06D-02
     ILin= 2 X=6.000D-01 Y=-7.569287839476D-02 DE=-2.44D-02 F= -3.07D-02
     ILin= 3 X=1.200D+00 Y=-8.800657682326D-02 DE=-3.67D-02 F= -1.02D-02
     ILin= 4 X=2.300D+00 Y=-7.798309511429D-02 DE=-2.67D-02 F=  2.87D-02
     An  expanding polynomial of degree  4 produced  1.4939
 Iteration   3 EE=-0.895112901367838E-01 Delta-E=       -0.038248737425 Grad=4.368D-02 Max rot=    0.9021 deg.
 Gradient too large for Newton-Raphson -- use scaled steepest descent instead.
 Alpha Gap=     0.377 HL deriv= 3.54D-06
  Beta Gap=     0.410 HL deriv= 1.11D-03
     ILin= 1 X=0.000D+00 Y=-8.951129013678D-02 DE= 0.00D+00 F= -4.51D-03
     ILin= 2 X=1.400D+00 Y=-9.223039109798D-02 DE=-2.72D-03 F=  6.29D-04
     Accept linear search using points  1 and  2.
     An  expanding polynomial of degree  2 produced  1.3132
     Minimum is close to point  2 DX= -8.68D-02 DF= -1.92D-05 DXR=  6.61D-02 DFR=  7.07D-03 which will be used.
 Iteration   4 EE=-0.922303910979849E-01 Delta-E=       -0.002719100961 Grad=1.788D-02 Max rot=    0.2518 deg.
 Gradient too large for Newton-Raphson -- use scaled steepest descent instead.
 Alpha Gap=     0.376 HL deriv= 3.85D-06
  Beta Gap=     0.409 HL deriv= 1.44D-04
     ILin= 1 X=0.000D+00 Y=-9.223039109798D-02 DE= 0.00D+00 F= -7.54D-04
     ILin= 2 X=1.400D+00 Y=-9.266788642054D-02 DE=-4.37D-04 F=  1.28D-04
     Accept linear search using points  1 and  2.
     An  expanding polynomial of degree  2 produced  1.2917
     Minimum is close to point  2 DX= -1.08D-01 DF= -4.88D-06 DXR=  8.38D-02 DFR=  1.12D-02 which will be used.
 Iteration   5 EE=-0.926678864205428E-01 Delta-E=       -0.000437495323 Grad=8.164D-03 Max rot=    0.1064 deg.
 QCNR:  CnvC1=3.85D-09 CnvC2=3.85D-08
 LinEq1:  Iter=  0 NonCon=     1 RMS=3.10D-04 Max=4.28D-03 NDo=     1
 AX will form     1 AO Fock derivatives at one time.
 LinEq1:  Iter=  1 NonCon=     1 RMS=9.09D-05 Max=1.35D-03 NDo=     1
 LinEq1:  Iter=  2 NonCon=     1 RMS=1.09D-05 Max=1.07D-04 NDo=     1
 LinEq1:  Iter=  3 NonCon=     1 RMS=2.12D-06 Max=2.14D-05 NDo=     1
 LinEq1:  Iter=  4 NonCon=     1 RMS=3.51D-07 Max=5.82D-06 NDo=     1
 LinEq1:  Iter=  5 NonCon=     1 RMS=1.15D-07 Max=2.34D-06 NDo=     1
 LinEq1:  Iter=  6 NonCon=     1 RMS=2.34D-08 Max=1.92D-07 NDo=     1
 LinEq1:  Iter=  7 NonCon=     1 RMS=4.18D-09 Max=4.06D-08 NDo=     1
 LinEq1:  Iter=  8 NonCon=     0 RMS=7.70D-10 Max=1.13D-08 NDo=     1
 Linear equations converged to 3.847D-09 3.847D-08 after     8 iterations.
 Angle between quadratic step and gradient=  45.10 degrees.
     ILin= 1 X=0.000D+00 Y=-9.266788642054D-02 DE= 0.00D+00 F= -2.82D-04
     ILin= 2 X=1.000D+00 Y=-9.280901171763D-02 DE=-1.41D-04 F=  1.38D-07
     Accept linear search using points  1 and  2.
     An  expanding polynomial of degree  2 produced  0.9995
     Minimum is close to point  2 DX= -4.89D-04 DF= -3.38D-11 DXR=  4.89D-04 DFR=  2.39D-07 which will be used.
 Iteration   6 EE=-0.928090117176339E-01 Delta-E=       -0.000141125297 Grad=2.964D-05 Max rot=    0.0003 deg.
 QCNR:  CnvC1=2.96D-10 CnvC2=2.96D-09
 LinEq1:  Iter=  0 NonCon=     1 RMS=1.07D-06 Max=9.71D-06 NDo=     1
 LinEq1:  Iter=  1 NonCon=     1 RMS=3.02D-07 Max=3.91D-06 NDo=     1
 LinEq1:  Iter=  2 NonCon=     1 RMS=8.03D-08 Max=8.92D-07 NDo=     1
 LinEq1:  Iter=  3 NonCon=     1 RMS=1.37D-08 Max=1.34D-07 NDo=     1
 LinEq1:  Iter=  4 NonCon=     1 RMS=3.10D-09 Max=5.27D-08 NDo=     1
 LinEq1:  Iter=  5 NonCon=     1 RMS=8.75D-10 Max=1.65D-08 NDo=     1
 LinEq1:  Iter=  6 NonCon=     1 RMS=2.34D-10 Max=3.18D-09 NDo=     1
 LinEq1:  Iter=  7 NonCon=     0 RMS=3.83D-11 Max=2.31D-10 NDo=     1
 Linear equations converged to 2.964D-10 2.964D-09 after     7 iterations.
 Angle between quadratic step and gradient=  50.38 degrees.
     ILin= 1 X=0.000D+00 Y=-9.280901171763D-02 DE= 0.00D+00 F= -4.25D-09
     ILin= 2 X=1.000D+00 Y=-9.280901383556D-02 DE=-2.12D-09
 Iteration   7 EE=-0.928090138355628E-01 Delta-E=       -0.000000002118 Grad=1.140D-06 Max rot=    0.0000 deg.
 QCNR:  CnvC1=1.14D-11 CnvC2=1.14D-10
 LinEq1:  Iter=  0 NonCon=     1 RMS=3.99D-08 Max=2.41D-07 NDo=     1
 LinEq1:  Iter=  1 NonCon=     1 RMS=9.27D-09 Max=7.73D-08 NDo=     1
 LinEq1:  Iter=  2 NonCon=     1 RMS=2.15D-09 Max=3.27D-08 NDo=     1
 LinEq1:  Iter=  3 NonCon=     1 RMS=6.10D-10 Max=9.66D-09 NDo=     1
 LinEq1:  Iter=  4 NonCon=     1 RMS=1.47D-10 Max=1.50D-09 NDo=     1
 LinEq1:  Iter=  5 NonCon=     1 RMS=3.20D-11 Max=2.56D-10 NDo=     1
 LinEq1:  Iter=  6 NonCon=     0 RMS=8.17D-12 Max=6.70D-11 NDo=     1
 Linear equations converged to 1.140D-11 1.140D-10 after     6 iterations.
 Angle between quadratic step and gradient=  66.68 degrees.
     ILin= 1 X=0.000D+00 Y=-9.280901383556D-02 DE= 0.00D+00 F= -6.53D-12
     ILin= 2 X=1.000D+00 Y=-9.280901383937D-02 DE=-3.81D-12
 Iteration   8 EE=-0.928090138393713E-01 Delta-E=       -0.000000000004 Grad=1.189D-07 Max rot=    0.0000 deg.
 Rotation gradient small -- convergence achieved.
 SCF Done:  E(UPM6) = -0.928090138394E-01 a.u. after    8 cycles
            Convg  =    0.1189D-06                    37 Fock formations.
              S**2 =  0.7545                  -V/T =  0.9975
 <Sx>= 0.0000 <Sy>= 0.0000 <Sz>= 0.5000 <S**2>= 0.7545 S= 0.5022
 <L.S>= 0.000000000000E+00
 Annihilation of the first spin contaminant:
 S**2 before annihilation     0.7545,   after     0.7500
 Leave Link  508 at Thu Feb 18 19:17:41 2021, MaxMem=    33554432 cpu:         0.1
 (Enter /apps/applications/gaussian/G09.D01/2/default/g09/l801.exe)
 Range of M.O.s used for correlation:     1    55
 NBasis=    55 NAE=    32 NBE=    31 NFC=     0 NFV=     0
 NROrb=     55 NOA=    32 NOB=    31 NVA=    23 NVB=    24
 Leave Link  801 at Thu Feb 18 19:17:41 2021, MaxMem=    33554432 cpu:         0.0
 (Enter /apps/applications/gaussian/G09.D01/2/default/g09/l1101.exe)
 Using compressed storage, NAtomX=    22.
 Will process     23 centers per pass.
 Leave Link 1101 at Thu Feb 18 19:17:41 2021, MaxMem=    33554432 cpu:         0.0
 (Enter /apps/applications/gaussian/G09.D01/2/default/g09/l1102.exe)
 Symmetrizing basis deriv contribution to polar:
 IMax=3 JMax=2 DiffMx= 0.00D+00
 Leave Link 1102 at Thu Feb 18 19:17:41 2021, MaxMem=    33554432 cpu:         0.0
 (Enter /apps/applications/gaussian/G09.D01/2/default/g09/l1110.exe)
 Forming Gx(P) for the SCF density, NAtomX=    22.
 Integral derivatives from FoFJK, PRISM(SPDF).
 Do as many integral derivatives as possible in FoFJK.
 G2DrvN: MDV=      33495261.
 G2DrvN: will do    23 centers at a time, making    1 passes.
 Calling FoFCou, ICntrl=  3107 FMM=F I1Cent=   0 AccDes= 0.00D+00.
 FoFJK:  IHMeth=40 ICntrl=    3107 DoSepK=F KAlg= 0 I1Cent=   0 FoldK=F
 IRaf=         0 NMat=   1 IRICut=       1 DoRegI=T DoRafI=F ISym2E= 0.
 FoFCou: FMM=F IPFlag=           0 FMFlag=      100000 FMFlg1=           0
         NFxFlg=           0 DoJE=F BraDBF=F KetDBF=F FulRan=T
         wScrn=  0.000000 ICntrl=    3107 IOpCl=  1 I1Cent=           0 NGrid=           0
         NMat0=    1 NMatS0=      1 NMatT0=    0 NMatD0=    1 NMtDS0=    0 NMtDT0=    0
 Symmetry not used in FoFCou.
 End of G2Drv F.D. properties file   721 does not exist.
 End of G2Drv F.D. properties file   722 does not exist.
 End of G2Drv F.D. properties file   788 does not exist.
 Leave Link 1110 at Thu Feb 18 19:17:41 2021, MaxMem=    33554432 cpu:         0.0
 (Enter /apps/applications/gaussian/G09.D01/2/default/g09/l1002.exe)
 Minotr:  UHF open shell wavefunction.
          IDoAtm=1111111111111111111111
          Direct CPHF calculation.
          Differentiating once with respect to electric field.
                with respect to dipole field.
          Differentiating once with respect to nuclear coordinates.
          Electric field/nuclear overlap derivatives assumed to be zero.
          Requested convergence is 1.0D-08 RMS, and 1.0D-07 maximum.
          NewPWx=T KeepS1=F KeepF1=F KeepIn=T MapXYZ=F SortEE=F KeepMc=T.
          MDV=      33495207 using IRadAn=       2.
 Keep J ints in memory in canonical form, NReq=889842.
 FoFCou: FMM=F IPFlag=           0 FMFlag=           0 FMFlg1=           0
         NFxFlg=           0 DoJE=F BraDBF=F KetDBF=F FulRan=T
         wScrn=  0.000000 ICntrl=     600 IOpCl=  2 I1Cent=           0 NGrid=           0
         NMat0=    1 NMatS0=    121 NMatT0=    0 NMatD0=    1 NMtDS0=    0 NMtDT0=    0
 Symmetry not used in FoFCou.
          Solving linear equations separately, MaxMat=       0.
          There are    69 degrees of freedom in the 1st order CPHF.  IDoFFX=5 NUNeed=    69.
 LinEq1:  Iter=  0 NonCon=    69 RMS=1.67D-01 Max=1.48D+00 NDo=    69
 AX will form    69 AO Fock derivatives at one time.
 LinEq1:  Iter=  1 NonCon=    69 RMS=2.62D-02 Max=2.35D-01 NDo=    69
 LinEq1:  Iter=  2 NonCon=    69 RMS=5.05D-03 Max=6.66D-02 NDo=    69
 LinEq1:  Iter=  3 NonCon=    69 RMS=7.32D-04 Max=7.78D-03 NDo=    69
 LinEq1:  Iter=  4 NonCon=    69 RMS=1.34D-04 Max=1.29D-03 NDo=    69
 LinEq1:  Iter=  5 NonCon=    69 RMS=2.06D-05 Max=2.41D-04 NDo=    69
 LinEq1:  Iter=  6 NonCon=    68 RMS=3.89D-06 Max=7.37D-05 NDo=    69
 LinEq1:  Iter=  7 NonCon=    47 RMS=1.07D-06 Max=2.05D-05 NDo=    69
 LinEq1:  Iter=  8 NonCon=    13 RMS=1.99D-07 Max=3.19D-06 NDo=    69
 LinEq1:  Iter=  9 NonCon=     3 RMS=3.74D-08 Max=3.68D-07 NDo=    69
 LinEq1:  Iter= 10 NonCon=     0 RMS=7.35D-09 Max=8.77D-08 NDo=    69
 Linear equations converged to 1.000D-08 1.000D-07 after    10 iterations.
 FullF1:  Do perturbations    1 to     3.
 Isotropic polarizability for W=    0.000000       62.92 Bohr**3.
 End of Minotr F.D. properties file   721 does not exist.
 End of Minotr F.D. properties file   722 does not exist.
 End of Minotr F.D. properties file   788 does not exist.
 Leave Link 1002 at Thu Feb 18 19:17:41 2021, MaxMem=    33554432 cpu:         0.5
 (Enter /apps/applications/gaussian/G09.D01/2/default/g09/l601.exe)
 Copying SCF densities to generalized density rwf, IOpCl= 1 IROHF=0.

 **********************************************************************

            Population analysis using the SCF density.

 **********************************************************************

 Alpha  occ. eigenvalues --   -1.25047  -1.17819  -1.10000  -1.06670  -1.03100
 Alpha  occ. eigenvalues --   -0.99295  -0.91607  -0.83635  -0.75917  -0.74748
 Alpha  occ. eigenvalues --   -0.70901  -0.68358  -0.62473  -0.60407  -0.59342
 Alpha  occ. eigenvalues --   -0.58506  -0.58343  -0.57446  -0.55452  -0.54512
 Alpha  occ. eigenvalues --   -0.51892  -0.51205  -0.50270  -0.49036  -0.47536
 Alpha  occ. eigenvalues --   -0.45930  -0.45563  -0.44810  -0.43042  -0.37348
 Alpha  occ. eigenvalues --   -0.35138  -0.33768
 Alpha virt. eigenvalues --    0.00504   0.01973   0.03810   0.03815   0.09502
 Alpha virt. eigenvalues --    0.10509   0.12642   0.13407   0.14398   0.16617
 Alpha virt. eigenvalues --    0.16634   0.17171   0.18281   0.18578   0.19200
 Alpha virt. eigenvalues --    0.19399   0.19667   0.20049   0.21896   0.22069
 Alpha virt. eigenvalues --    0.22582   0.23585   0.24513
  Beta  occ. eigenvalues --   -1.25047  -1.17817  -1.09983  -1.06630  -1.02996
  Beta  occ. eigenvalues --   -0.99128  -0.91314  -0.83260  -0.75296  -0.74742
  Beta  occ. eigenvalues --   -0.70761  -0.68305  -0.62396  -0.60244  -0.59288
  Beta  occ. eigenvalues --   -0.58506  -0.58323  -0.57166  -0.55291  -0.54143
  Beta  occ. eigenvalues --   -0.51679  -0.50817  -0.49982  -0.48900  -0.46936
  Beta  occ. eigenvalues --   -0.45536  -0.45227  -0.44787  -0.42906  -0.37345
  Beta  occ. eigenvalues --   -0.35093
  Beta virt. eigenvalues --    0.00501   0.01973   0.03810   0.03815   0.04127
  Beta virt. eigenvalues --    0.09501   0.10510   0.12661   0.13405   0.14433
  Beta virt. eigenvalues --    0.16623   0.17159   0.17695   0.18295   0.18588
  Beta virt. eigenvalues --    0.19229   0.19609   0.19819   0.20209   0.21921
  Beta virt. eigenvalues --    0.22326   0.22627   0.24441   0.25354
          Condensed to atoms (all electrons):
               1          2          3          4          5          6
     1  O    6.355856   0.000000   0.000000   0.000000   0.000000   0.000000
     2  C    0.000000   3.641096   0.000000   0.000000   0.000000   0.000000
     3  C    0.000000   0.000000   4.319576   0.000000   0.000000   0.000000
     4  C    0.000000   0.000000   0.000000   4.238065   0.000000   0.000000
     5  C    0.000000   0.000000   0.000000   0.000000   4.300576   0.000000
     6  C    0.000000   0.000000   0.000000   0.000000   0.000000   4.047151
     7  H    0.000000   0.000000   0.000000   0.000000   0.000000   0.000000
     8  C    0.000000   0.000000   0.000000   0.000000   0.000000   0.000000
     9  O    0.000000   0.000000   0.000000   0.000000   0.000000   0.000000
    10  C    0.000000   0.000000   0.000000   0.000000   0.000000   0.000000
    11  H    0.000000   0.000000   0.000000   0.000000   0.000000   0.000000
    12  H    0.000000   0.000000   0.000000   0.000000   0.000000   0.000000
    13  H    0.000000   0.000000   0.000000   0.000000   0.000000   0.000000
    14  H    0.000000   0.000000   0.000000   0.000000   0.000000   0.000000
    15  H    0.000000   0.000000   0.000000   0.000000   0.000000   0.000000
    16  H    0.000000   0.000000   0.000000   0.000000   0.000000   0.000000
    17  H    0.000000   0.000000   0.000000   0.000000   0.000000   0.000000
    18  H    0.000000   0.000000   0.000000   0.000000   0.000000   0.000000
    19  H    0.000000   0.000000   0.000000   0.000000   0.000000   0.000000
    20  H    0.000000   0.000000   0.000000   0.000000   0.000000   0.000000
    21  O    0.000000   0.000000   0.000000   0.000000   0.000000   0.000000
    22  O    0.000000   0.000000   0.000000   0.000000   0.000000   0.000000
               7          8          9         10         11         12
     1  O    0.000000   0.000000   0.000000   0.000000   0.000000   0.000000
     2  C    0.000000   0.000000   0.000000   0.000000   0.000000   0.000000
     3  C    0.000000   0.000000   0.000000   0.000000   0.000000   0.000000
     4  C    0.000000   0.000000   0.000000   0.000000   0.000000   0.000000
     5  C    0.000000   0.000000   0.000000   0.000000   0.000000   0.000000
     6  C    0.000000   0.000000   0.000000   0.000000   0.000000   0.000000
     7  H    0.835538   0.000000   0.000000   0.000000   0.000000   0.000000
     8  C    0.000000   3.446754   0.000000   0.000000   0.000000   0.000000
     9  O    0.000000   0.000000   6.439597   0.000000   0.000000   0.000000
    10  C    0.000000   0.000000   0.000000   4.643353   0.000000   0.000000
    11  H    0.000000   0.000000   0.000000   0.000000   0.696352   0.000000
    12  H    0.000000   0.000000   0.000000   0.000000   0.000000   0.842385
    13  H    0.000000   0.000000   0.000000   0.000000   0.000000   0.000000
    14  H    0.000000   0.000000   0.000000   0.000000   0.000000   0.000000
    15  H    0.000000   0.000000   0.000000   0.000000   0.000000   0.000000
    16  H    0.000000   0.000000   0.000000   0.000000   0.000000   0.000000
    17  H    0.000000   0.000000   0.000000   0.000000   0.000000   0.000000
    18  H    0.000000   0.000000   0.000000   0.000000   0.000000   0.000000
    19  H    0.000000   0.000000   0.000000   0.000000   0.000000   0.000000
    20  H    0.000000   0.000000   0.000000   0.000000   0.000000   0.000000
    21  O    0.000000   0.000000   0.000000   0.000000   0.000000   0.000000
    22  O    0.000000   0.000000   0.000000   0.000000   0.000000   0.000000
              13         14         15         16         17         18
     1  O    0.000000   0.000000   0.000000   0.000000   0.000000   0.000000
     2  C    0.000000   0.000000   0.000000   0.000000   0.000000   0.000000
     3  C    0.000000   0.000000   0.000000   0.000000   0.000000   0.000000
     4  C    0.000000   0.000000   0.000000   0.000000   0.000000   0.000000
     5  C    0.000000   0.000000   0.000000   0.000000   0.000000   0.000000
     6  C    0.000000   0.000000   0.000000   0.000000   0.000000   0.000000
     7  H    0.000000   0.000000   0.000000   0.000000   0.000000   0.000000
     8  C    0.000000   0.000000   0.000000   0.000000   0.000000   0.000000
     9  O    0.000000   0.000000   0.000000   0.000000   0.000000   0.000000
    10  C    0.000000   0.000000   0.000000   0.000000   0.000000   0.000000
    11  H    0.000000   0.000000   0.000000   0.000000   0.000000   0.000000
    12  H    0.000000   0.000000   0.000000   0.000000   0.000000   0.000000
    13  H    0.863567   0.000000   0.000000   0.000000   0.000000   0.000000
    14  H    0.000000   0.852350   0.000000   0.000000   0.000000   0.000000
    15  H    0.000000   0.000000   0.858185   0.000000   0.000000   0.000000
    16  H    0.000000   0.000000   0.000000   0.862319   0.000000   0.000000
    17  H    0.000000   0.000000   0.000000   0.000000   0.837013   0.000000
    18  H    0.000000   0.000000   0.000000   0.000000   0.000000   0.800227
    19  H    0.000000   0.000000   0.000000   0.000000   0.000000   0.000000
    20  H    0.000000   0.000000   0.000000   0.000000   0.000000   0.000000
    21  O    0.000000   0.000000   0.000000   0.000000   0.000000   0.000000
    22  O    0.000000   0.000000   0.000000   0.000000   0.000000   0.000000
              19         20         21         22
     1  O    0.000000   0.000000   0.000000   0.000000
     2  C    0.000000   0.000000   0.000000   0.000000
     3  C    0.000000   0.000000   0.000000   0.000000
     4  C    0.000000   0.000000   0.000000   0.000000
     5  C    0.000000   0.000000   0.000000   0.000000
     6  C    0.000000   0.000000   0.000000   0.000000
     7  H    0.000000   0.000000   0.000000   0.000000
     8  C    0.000000   0.000000   0.000000   0.000000
     9  O    0.000000   0.000000   0.000000   0.000000
    10  C    0.000000   0.000000   0.000000   0.000000
    11  H    0.000000   0.000000   0.000000   0.000000
    12  H    0.000000   0.000000   0.000000   0.000000
    13  H    0.000000   0.000000   0.000000   0.000000
    14  H    0.000000   0.000000   0.000000   0.000000
    15  H    0.000000   0.000000   0.000000   0.000000
    16  H    0.000000   0.000000   0.000000   0.000000
    17  H    0.000000   0.000000   0.000000   0.000000
    18  H    0.000000   0.000000   0.000000   0.000000
    19  H    0.811796   0.000000   0.000000   0.000000
    20  H    0.000000   0.804740   0.000000   0.000000
    21  O    0.000000   0.000000   6.332182   0.000000
    22  O    0.000000   0.000000   0.000000   6.171321
          Atomic-Atomic Spin Densities.
               1          2          3          4          5          6
     1  O    0.000000   0.000000   0.000000   0.000000   0.000000   0.000000
     2  C    0.000000   0.000001   0.000000   0.000000   0.000000   0.000000
     3  C    0.000000   0.000000   1.061090   0.000000   0.000000   0.000000
     4  C    0.000000   0.000000   0.000000  -0.055899   0.000000   0.000000
     5  C    0.000000   0.000000   0.000000   0.000000   0.006718   0.000000
     6  C    0.000000   0.000000   0.000000   0.000000   0.000000  -0.000433
     7  H    0.000000   0.000000   0.000000   0.000000   0.000000   0.000000
     8  C    0.000000   0.000000   0.000000   0.000000   0.000000   0.000000
     9  O    0.000000   0.000000   0.000000   0.000000   0.000000   0.000000
    10  C    0.000000   0.000000   0.000000   0.000000   0.000000   0.000000
    11  H    0.000000   0.000000   0.000000   0.000000   0.000000   0.000000
    12  H    0.000000   0.000000   0.000000   0.000000   0.000000   0.000000
    13  H    0.000000   0.000000   0.000000   0.000000   0.000000   0.000000
    14  H    0.000000   0.000000   0.000000   0.000000   0.000000   0.000000
    15  H    0.000000   0.000000   0.000000   0.000000   0.000000   0.000000
    16  H    0.000000   0.000000   0.000000   0.000000   0.000000   0.000000
    17  H    0.000000   0.000000   0.000000   0.000000   0.000000   0.000000
    18  H    0.000000   0.000000   0.000000   0.000000   0.000000   0.000000
    19  H    0.000000   0.000000   0.000000   0.000000   0.000000   0.000000
    20  H    0.000000   0.000000   0.000000   0.000000   0.000000   0.000000
    21  O    0.000000   0.000000   0.000000   0.000000   0.000000   0.000000
    22  O    0.000000   0.000000   0.000000   0.000000   0.000000   0.000000
               7          8          9         10         11         12
     1  O    0.000000   0.000000   0.000000   0.000000   0.000000   0.000000
     2  C    0.000000   0.000000   0.000000   0.000000   0.000000   0.000000
     3  C    0.000000   0.000000   0.000000   0.000000   0.000000   0.000000
     4  C    0.000000   0.000000   0.000000   0.000000   0.000000   0.000000
     5  C    0.000000   0.000000   0.000000   0.000000   0.000000   0.000000
     6  C    0.000000   0.000000   0.000000   0.000000   0.000000   0.000000
     7  H    0.000140   0.000000   0.000000   0.000000   0.000000   0.000000
     8  C    0.000000   0.000084   0.000000   0.000000   0.000000   0.000000
     9  O    0.000000   0.000000  -0.000028   0.000000   0.000000   0.000000
    10  C    0.000000   0.000000   0.000000   0.000014   0.000000   0.000000
    11  H    0.000000   0.000000   0.000000   0.000000   0.000097   0.000000
    12  H    0.000000   0.000000   0.000000   0.000000   0.000000  -0.033736
    13  H    0.000000   0.000000   0.000000   0.000000   0.000000   0.000000
    14  H    0.000000   0.000000   0.000000   0.000000   0.000000   0.000000
    15  H    0.000000   0.000000   0.000000   0.000000   0.000000   0.000000
    16  H    0.000000   0.000000   0.000000   0.000000   0.000000   0.000000
    17  H    0.000000   0.000000   0.000000   0.000000   0.000000   0.000000
    18  H    0.000000   0.000000   0.000000   0.000000   0.000000   0.000000
    19  H    0.000000   0.000000   0.000000   0.000000   0.000000   0.000000
    20  H    0.000000   0.000000   0.000000   0.000000   0.000000   0.000000
    21  O    0.000000   0.000000   0.000000   0.000000   0.000000   0.000000
    22  O    0.000000   0.000000   0.000000   0.000000   0.000000   0.000000
              13         14         15         16         17         18
     1  O    0.000000   0.000000   0.000000   0.000000   0.000000   0.000000
     2  C    0.000000   0.000000   0.000000   0.000000   0.000000   0.000000
     3  C    0.000000   0.000000   0.000000   0.000000   0.000000   0.000000
     4  C    0.000000   0.000000   0.000000   0.000000   0.000000   0.000000
     5  C    0.000000   0.000000   0.000000   0.000000   0.000000   0.000000
     6  C    0.000000   0.000000   0.000000   0.000000   0.000000   0.000000
     7  H    0.000000   0.000000   0.000000   0.000000   0.000000   0.000000
     8  C    0.000000   0.000000   0.000000   0.000000   0.000000   0.000000
     9  O    0.000000   0.000000   0.000000   0.000000   0.000000   0.000000
    10  C    0.000000   0.000000   0.000000   0.000000   0.000000   0.000000
    11  H    0.000000   0.000000   0.000000   0.000000   0.000000   0.000000
    12  H    0.000000   0.000000   0.000000   0.000000   0.000000   0.000000
    13  H   -0.034045   0.000000   0.000000   0.000000   0.000000   0.000000
    14  H    0.000000   0.037195   0.000000   0.000000   0.000000   0.000000
    15  H    0.000000   0.000000   0.020472   0.000000   0.000000   0.000000
    16  H    0.000000   0.000000   0.000000  -0.000869   0.000000   0.000000
    17  H    0.000000   0.000000   0.000000   0.000000  -0.000508   0.000000
    18  H    0.000000   0.000000   0.000000   0.000000   0.000000  -0.000001
    19  H    0.000000   0.000000   0.000000   0.000000   0.000000   0.000000
    20  H    0.000000   0.000000   0.000000   0.000000   0.000000   0.000000
    21  O    0.000000   0.000000   0.000000   0.000000   0.000000   0.000000
    22  O    0.000000   0.000000   0.000000   0.000000   0.000000   0.000000
              19         20         21         22
     1  O    0.000000   0.000000   0.000000   0.000000
     2  C    0.000000   0.000000   0.000000   0.000000
     3  C    0.000000   0.000000   0.000000   0.000000
     4  C    0.000000   0.000000   0.000000   0.000000
     5  C    0.000000   0.000000   0.000000   0.000000
     6  C    0.000000   0.000000   0.000000   0.000000
     7  H    0.000000   0.000000   0.000000   0.000000
     8  C    0.000000   0.000000   0.000000   0.000000
     9  O    0.000000   0.000000   0.000000   0.000000
    10  C    0.000000   0.000000   0.000000   0.000000
    11  H    0.000000   0.000000   0.000000   0.000000
    12  H    0.000000   0.000000   0.000000   0.000000
    13  H    0.000000   0.000000   0.000000   0.000000
    14  H    0.000000   0.000000   0.000000   0.000000
    15  H    0.000000   0.000000   0.000000   0.000000
    16  H    0.000000   0.000000   0.000000   0.000000
    17  H    0.000000   0.000000   0.000000   0.000000
    18  H    0.000000   0.000000   0.000000   0.000000
    19  H   -0.000001   0.000000   0.000000   0.000000
    20  H    0.000000   0.000012   0.000000   0.000000
    21  O    0.000000   0.000000  -0.000392   0.000000
    22  O    0.000000   0.000000   0.000000   0.000091
 Mulliken charges and spin densities:
               1          2
     1  O   -0.355856   0.000000
     2  C    0.358904   0.000001
     3  C   -0.319576   1.061090
     4  C   -0.238065  -0.055899
     5  C   -0.300576   0.006718
     6  C   -0.047151  -0.000433
     7  H    0.164462   0.000140
     8  C    0.553246   0.000084
     9  O   -0.439597  -0.000028
    10  C   -0.643353   0.000014
    11  H    0.303648   0.000097
    12  H    0.157615  -0.033736
    13  H    0.136433  -0.034045
    14  H    0.147650   0.037195
    15  H    0.141815   0.020472
    16  H    0.137681  -0.000869
    17  H    0.162987  -0.000508
    18  H    0.199773  -0.000001
    19  H    0.188204  -0.000001
    20  H    0.195260   0.000012
    21  O   -0.332182  -0.000392
    22  O   -0.171321   0.000091
 Sum of Mulliken charges =   0.00000   1.00000
 Mulliken charges and spin densities with hydrogens summed into heavy atoms:
               1          2
     1  O   -0.355856   0.000000
     2  C    0.358904   0.000001
     3  C   -0.025528   0.993308
     4  C    0.051401   0.001768
     5  C    0.000092   0.005341
     6  C    0.117311  -0.000292
     8  C    0.553246   0.000084
     9  O   -0.439597  -0.000028
    10  C   -0.060116   0.000023
    21  O   -0.028534  -0.000295
    22  O   -0.171321   0.000091
 APT charges:
               1
     1  O   -0.569274
     2  C    0.545482
     3  C   -0.306403
     4  C   -0.265894
     5  C   -0.347375
     6  C   -0.034508
     7  H    0.133581
     8  C    1.154724
     9  O   -0.713671
    10  C   -0.989909
    11  H    0.354017
    12  H    0.170886
    13  H    0.155646
    14  H    0.136926
    15  H    0.140003
    16  H    0.129787
    17  H    0.155518
    18  H    0.239062
    19  H    0.232061
    20  H    0.241944
    21  O   -0.431332
    22  O   -0.131244
 Sum of APT charges =   0.00003
 APT charges with hydrogens summed into heavy atoms:
               1
     1  O   -0.569274
     2  C    0.545482
     3  C    0.020129
     4  C    0.011036
     5  C   -0.062070
     6  C    0.099073
     8  C    1.154724
     9  O   -0.713671
    10  C   -0.276843
    21  O   -0.077315
    22  O   -0.131244
 Charge=              0.0000 electrons
 Dipole moment (field-independent basis, Debye):
    X=              3.2086    Y=             -1.8441    Z=              0.9488  Tot=              3.8205
 N-N= 3.805349293119D+02 E-N=-6.820832080680D+02  KE=-3.698267358380D+01
  Exact polarizability:  58.661  -9.730  67.726 -10.525   0.642  62.361
 Approx polarizability:  40.923 -10.169  51.408  -7.172  -1.313  38.473
 Leave Link  601 at Thu Feb 18 19:17:42 2021, MaxMem=    33554432 cpu:         0.0
 (Enter /apps/applications/gaussian/G09.D01/2/default/g09/l701.exe)
 Compute integral second derivatives.
 ... and contract with generalized density number  0.
 Leave Link  701 at Thu Feb 18 19:17:42 2021, MaxMem=    33554432 cpu:         0.1
 (Enter /apps/applications/gaussian/G09.D01/2/default/g09/l702.exe)
 L702 exits ... SP integral derivatives will be done elsewhere.
 Leave Link  702 at Thu Feb 18 19:17:42 2021, MaxMem=    33554432 cpu:         0.0
 (Enter /apps/applications/gaussian/G09.D01/2/default/g09/l703.exe)
 Compute integral second derivatives, UseDBF=F ICtDFT=           0.
 Integral derivatives from FoFJK, PRISM(SPDF).
 Calling FoFJK, ICntrl=    100127 FMM=F ISym2X=0 I1Cent= 0 IOpClX= 1 NMat=1 NMatS=1 NMatT=0.
 FoFJK:  IHMeth=40 ICntrl=  100127 DoSepK=F KAlg= 0 I1Cent=   0 FoldK=F
 IRaf=         0 NMat=   1 IRICut=       1 DoRegI=T DoRafI=F ISym2E= 0.
 FoFCou: FMM=F IPFlag=           0 FMFlag=      100000 FMFlg1=         800
         NFxFlg=           0 DoJE=F BraDBF=F KetDBF=F FulRan=T
         wScrn=  0.000000 ICntrl=  100127 IOpCl=  1 I1Cent=           0 NGrid=           0
         NMat0=    1 NMatS0=      1 NMatT0=    0 NMatD0=    1 NMtDS0=    0 NMtDT0=    0
 Symmetry not used in FoFCou.
 Leave Link  703 at Thu Feb 18 19:17:42 2021, MaxMem=    33554432 cpu:         0.0
 (Enter /apps/applications/gaussian/G09.D01/2/default/g09/l716.exe)
 Dipole        = 1.26234284D+00-7.25541268D-01 3.73274442D-01
 Polarizability= 5.86606351D+01-9.73021559D+00 6.77258635D+01
                -1.05251594D+01 6.41756227D-01 6.23609452D+01
 HyperPolar    = 5.74702872D+01-2.04301971D+01-1.05263871D+01
                -2.69798221D+01 1.38813511D+01-2.38531195D+01
                 3.58223783D+01-3.08879324D+01-3.03481419D+01
                 4.35172069D+01
 -------------------------------------------------------------------
 Center     Atomic                   Forces (Hartrees/Bohr)
 Number     Number              X              Y              Z
 -------------------------------------------------------------------
      1        8          -0.000000025    0.000000148   -0.000000014
      2        6           0.000000022   -0.000000145    0.000000014
      3        6           0.000000252   -0.000000144   -0.000000140
      4        6          -0.000000261   -0.000000110    0.000000164
      5        6           0.000000067   -0.000000029   -0.000000297
      6        6           0.000000317    0.000000153   -0.000000057
      7        1          -0.000000016    0.000000002    0.000000036
      8        6           0.000000186   -0.000000428   -0.000000228
      9        8          -0.000000117    0.000000227   -0.000000017
     10        6           0.000000063   -0.000000415    0.000000526
     11        1          -0.000000091    0.000000084    0.000000300
     12        1          -0.000000074   -0.000000013    0.000000022
     13        1          -0.000000011    0.000000084    0.000000030
     14        1           0.000000028    0.000000021    0.000000012
     15        1          -0.000000019    0.000000038   -0.000000061
     16        1          -0.000000197    0.000000089    0.000000038
     17        1          -0.000000037   -0.000000030    0.000000133
     18        1          -0.000000044    0.000000203   -0.000000213
     19        1          -0.000000269    0.000000019   -0.000000088
     20        1           0.000000102    0.000000340    0.000000145
     21        8          -0.000000018   -0.000000247   -0.000000113
     22        8           0.000000141    0.000000151   -0.000000192
 -------------------------------------------------------------------
 Cartesian Forces:  Max     0.000000526 RMS     0.000000171
 Leave Link  716 at Thu Feb 18 19:17:42 2021, MaxMem=    33554432 cpu:         0.0
 (Enter /apps/applications/gaussian/G09.D01/2/default/g09/l103.exe)

 GradGradGradGradGradGradGradGradGradGradGradGradGradGradGradGradGradGrad
 Berny optimization.
 Search for a saddle point.
 Step number   1 out of a maximum of  100
 All quantities printed in internal units (Hartrees-Bohrs-Radians)
 Swapping is turned off.
 Second derivative matrix not updated -- analytic derivatives used.
 ITU=  0
     Eigenvalues ---   -0.00003   0.00003   0.00009   0.00014   0.00021
     Eigenvalues ---    0.00037   0.00057   0.00071   0.00174   0.00251
     Eigenvalues ---    0.00373   0.00409   0.00504   0.00634   0.01169
     Eigenvalues ---    0.01958   0.02147   0.03224   0.03526   0.03841
     Eigenvalues ---    0.04541   0.04590   0.04791   0.05286   0.05455
     Eigenvalues ---    0.05707   0.06044   0.06809   0.06910   0.07708
     Eigenvalues ---    0.08478   0.09921   0.11839   0.12257   0.13875
     Eigenvalues ---    0.14162   0.14600   0.18264   0.20160   0.23468
     Eigenvalues ---    0.26749   0.32078   0.38126   0.44924   0.49226
     Eigenvalues ---    0.50006   0.54537   0.56982   0.58788   0.59540
     Eigenvalues ---    0.60697   0.61789   0.62983   0.64267   0.68820
     Eigenvalues ---    0.70404   0.71283   0.83229   1.69194   2.14368
 Eigenvectors required to have negative eigenvalues:
                          X1        X2        X13       X12       X17
   1                    0.38074   0.37858  -0.24634  -0.23104  -0.23002
                          X3        X15       Z15       X18       Z22
   1                   -0.21830  -0.20960   0.19760   0.19217  -0.18379
 RFO step:  Lambda0=2.623151601D-14 Lambda= 0.00000000D+00.
 Linear search not attempted -- option 19 set.
 TrRot=  0.000001  0.000001  0.000004  0.000002  0.000003  0.000002
 Variable       Old X    -DE/DX   Delta X   Delta X   Delta X     New X
                                 (Linear)    (Quad)   (Total)
    X1       -5.31691   0.00000   0.00000   0.00001   0.00003  -5.31688
    Y1        1.26959   0.00000   0.00000  -0.00009  -0.00010   1.26949
    Z1        6.08396   0.00000   0.00000   0.00018   0.00020   6.08416
    X2       -6.16399   0.00000   0.00000  -0.00017  -0.00016  -6.16415
    Y2        3.10420   0.00000   0.00000  -0.00034  -0.00036   3.10384
    Z2        6.83913   0.00000   0.00000   0.00060   0.00062   6.83975
    X3        0.95195   0.00000   0.00000   0.00003   0.00002   0.95196
    Y3        4.52819   0.00000   0.00000   0.00007   0.00008   4.52827
    Z3        1.03500   0.00000   0.00000  -0.00011  -0.00011   1.03489
    X4        2.88917   0.00000   0.00000   0.00001   0.00000   2.88917
    Y4        2.74929   0.00000   0.00000   0.00002   0.00003   2.74931
    Z4        0.13462   0.00000   0.00000  -0.00004  -0.00005   0.13457
    X5        2.12856   0.00000   0.00000  -0.00005  -0.00004   2.12851
    Y5       -0.04138   0.00000   0.00000   0.00004   0.00005  -0.04134
    Z5        0.37068   0.00000   0.00000   0.00000   0.00000   0.37068
    X6       -0.22554   0.00000   0.00000  -0.00002  -0.00002  -0.22557
    Y6       -0.80933   0.00000   0.00000   0.00005   0.00005  -0.80928
    Z6       -1.13446   0.00000   0.00000  -0.00003  -0.00003  -1.13450
    X7       -0.34867   0.00000   0.00000  -0.00007  -0.00006  -0.34873
    Y7       -2.91135   0.00000   0.00000   0.00005   0.00005  -2.91131
    Z7       -1.28590   0.00000   0.00000   0.00002   0.00003  -1.28587
    X8       -0.35234   0.00000   0.00000   0.00007   0.00006  -0.35228
    Y8        0.41123   0.00000   0.00000  -0.00003  -0.00003   0.41120
    Z8       -3.77092   0.00000   0.00000  -0.00007  -0.00007  -3.77098
    X9       -1.70121   0.00000   0.00000   0.00013   0.00012  -1.70109
    Y9        2.17697   0.00000   0.00000   0.00000  -0.00001   2.17696
    Z9       -4.25715   0.00000   0.00000  -0.00016  -0.00015  -4.25730
   X10        1.34031   0.00000   0.00000   0.00009   0.00008   1.34039
   Y10       -0.81674   0.00000   0.00000  -0.00013  -0.00012  -0.81686
   Z10       -5.69307   0.00000   0.00000   0.00001   0.00001  -5.69306
   X11       -3.85218   0.00000   0.00000  -0.00003  -0.00002  -3.85220
   Y11       -1.18442   0.00000   0.00000   0.00023   0.00021  -1.18421
   Z11        3.14554   0.00000   0.00000  -0.00007  -0.00006   3.14549
   X12       -0.97155   0.00000   0.00000   0.00001   0.00000  -0.97154
   Y12        3.94100   0.00000   0.00000   0.00011   0.00011   3.94111
   Z12        1.26586   0.00000   0.00000  -0.00012  -0.00011   1.26574
   X13        1.40798   0.00000   0.00000   0.00005   0.00004   1.40802
   Y13        6.45929   0.00000   0.00000   0.00007   0.00008   6.45937
   Z13        1.38978   0.00000   0.00000  -0.00015  -0.00015   1.38963
   X14        3.34627   0.00000   0.00000   0.00005   0.00004   3.34631
   Y14        3.21579   0.00000   0.00000  -0.00003  -0.00002   3.21577
   Z14       -1.86994   0.00000   0.00000  -0.00004  -0.00005  -1.86999
   X15        4.68892   0.00000   0.00000   0.00000  -0.00001   4.68891
   Y15        3.05184   0.00000   0.00000   0.00001   0.00003   3.05187
   Z15        1.18097   0.00000   0.00000  -0.00002  -0.00003   1.18094
   X16        3.73934   0.00000   0.00000  -0.00005  -0.00005   3.73929
   Y16       -1.25273   0.00000   0.00000   0.00000   0.00001  -1.25272
   Z16       -0.18913   0.00000   0.00000   0.00007   0.00006  -0.18907
   X17        1.75200   0.00000   0.00000  -0.00010  -0.00009   1.75191
   Y17       -0.47860   0.00000   0.00000   0.00009   0.00010  -0.47850
   Z17        2.39127   0.00000   0.00000   0.00000   0.00000   2.39128
   X18        1.48901   0.00000   0.00000   0.00016   0.00014   1.48914
   Y18        0.35578   0.00000   0.00000  -0.00018  -0.00018   0.35560
   Z18       -7.40580   0.00000   0.00000  -0.00003  -0.00003  -7.40582
   X19        3.26007   0.00000   0.00000   0.00006   0.00005   3.26013
   Y19       -1.13595   0.00000   0.00000  -0.00015  -0.00014  -1.13609
   Z19       -4.98451   0.00000   0.00000   0.00006   0.00006  -4.98446
   X20        0.58087   0.00000   0.00000   0.00006   0.00005   0.58092
   Y20       -2.65319   0.00000   0.00000  -0.00013  -0.00012  -2.65331
   Z20       -6.29603   0.00000   0.00000   0.00005   0.00005  -6.29598
   X21       -3.35150   0.00000   0.00000  -0.00013  -0.00012  -3.35162
   Y21       -2.07999   0.00000   0.00000   0.00019   0.00018  -2.07981
   Z21        1.54071   0.00000   0.00000  -0.00009  -0.00007   1.54064
   X22       -2.49345   0.00000   0.00000  -0.00004  -0.00004  -2.49349
   Y22        0.06719   0.00000   0.00000   0.00013   0.00013   0.06732
   Z22        0.13977   0.00000   0.00000  -0.00012  -0.00011   0.13967
         Item               Value     Threshold  Converged?
 Maximum Force            0.000001     0.000450     YES
 RMS     Force            0.000000     0.000300     YES
 Maximum Displacement     0.000620     0.001800     YES
 RMS     Displacement     0.000124     0.001200     YES
 Predicted change in Energy=-2.419269D-11
 Optimization completed.
    -- Stationary point found.
 Lowest energy point so far.  Saving SCF results.
 GradGradGradGradGradGradGradGradGradGradGradGradGradGradGradGradGradGrad

 Largest change from initial coordinates is atom    0       0.000 Angstoms.
 Leave Link  103 at Thu Feb 18 19:17:42 2021, MaxMem=    33554432 cpu:         0.0
 (Enter /apps/applications/gaussian/G09.D01/2/default/g09/l202.exe)
                          Input orientation:                          
 ---------------------------------------------------------------------
 Center     Atomic      Atomic             Coordinates (Angstroms)
 Number     Number       Type             X           Y           Z
 ---------------------------------------------------------------------
      1          8           0       -2.813588    0.671840    3.219493
      2          6           0       -3.261841    1.642673    3.619112
      3          6           0        0.503748    2.396215    0.547699
      4          6           0        1.528883    1.454859    0.071237
      5          6           0        1.126383   -0.021899    0.196155
      6          6           0       -0.119352   -0.428277   -0.600333
      7          1           0       -0.184508   -1.540621   -0.680470
      8          6           0       -0.186449    0.217612   -1.995483
      9          8           0       -0.900241    1.152003   -2.252785
     10          6           0        0.709264   -0.432200   -3.012643
     11          1           0       -2.038488   -0.626770    1.664550
     12          1           0       -0.514120    2.085486    0.669862
     13          1           0        0.745071    3.418108    0.735441
     14          1           0        1.770769    1.701723   -0.989532
     15          1           0        2.481271    1.614964    0.624942
     16          1           0        1.978773   -0.662917   -0.100083
     17          1           0        0.927120   -0.253264    1.265407
     18          1           0        0.787948    0.188269   -3.918978
     19          1           0        1.725156   -0.601119   -2.637691
     20          1           0        0.307384   -1.404007   -3.331715
     21          8           0       -1.773537   -1.100685    0.815309
     22          8           0       -1.319477    0.035555    0.073965
 ---------------------------------------------------------------------
                    Distance matrix (angstroms):
                    1          2          3          4          5
     1  O    0.000000
     2  C    1.141553   0.000000
     3  C    4.595288   4.917425   0.000000
     4  C    5.420488   5.964372   1.471077   0.000000
     5  C    5.014501   5.808954   2.521613   1.535716   0.000000
     6  C    4.802107   5.654006   3.111910   2.591117   1.533425
     7  H    5.197765   6.171689   4.181001   3.531809   2.189389
     8  C    5.856975   6.558392   3.419131   2.957106   2.565964
     9  O    5.816982   6.347999   3.370751   3.375418   3.388592
    10  C    7.243543   8.003433   4.551725   3.707166   3.261705
    11  H    2.169105   3.235317   4.104724   4.426958   3.540969
    12  H    3.713027   4.055136   1.071229   2.220339   2.712327
    13  H    5.135811   5.246244   1.066653   2.215824   3.502838
    14  H    6.308160   6.824240   2.109678   1.115653   2.189055
    15  H    5.971324   6.476817   2.127655   1.113223   2.167695
    16  H    5.980626   6.827312   3.457399   2.171803   1.106901
    17  H    4.320552   5.165452   2.777425   2.169296   1.111996
    18  H    8.010160   8.679797   4.990691   4.251476   4.134372
    19  H    7.518459   8.309773   4.541207   3.406444   2.953762
    20  H    7.547710   8.386634   5.434160   4.609258   3.876448
    21  O    3.162855   4.195518   4.181621   4.241512   3.155419
    22  O    3.539996   4.350135   3.020147   3.182387   2.449584
                    6          7          8          9         10
     6  C    0.000000
     7  H    1.117129   0.000000
     8  C    1.538869   2.195597   0.000000
     9  O    2.416127   3.199167   1.203657   0.000000
    10  C    2.550659   2.732482   1.503054   2.382769   0.000000
    11  H    2.975261   3.125937   4.187944   4.450298   5.428087
    12  H    2.843983   3.883387   3.271144   3.092304   4.625609
    13  H    4.162475   5.240030   4.309159   4.095336   5.373480
    14  H    2.874184   3.798871   2.654284   3.005378   3.126243
    15  H    3.526949   4.332227   3.991986   4.464333   4.534635
    16  H    2.169662   2.405618   3.009329   4.027007   3.185575
    17  H    2.146327   2.584462   3.477810   4.206150   4.287329
    18  H    3.495243   3.797718   2.156419   2.560266   1.101188
    19  H    2.753709   2.891400   2.176462   3.180299   1.095974
    20  H    2.931655   2.699948   2.158480   3.025828   1.098965
    21  O    2.278706   2.226188   3.486733   3.905182   4.611333
    22  O    1.452624   2.083664   2.366329   2.614571   3.723135
                   11         12         13         14         15
    11  H    0.000000
    12  H    3.266410   0.000000
    13  H    4.997247   1.834596   0.000000
    14  H    5.193888   2.849839   2.640751   0.000000
    15  H    5.151153   3.032454   2.505580   1.766031   0.000000
    16  H    4.387895   3.789598   4.344524   2.534937   2.442725
    17  H    3.015568   2.810978   3.713890   3.101365   2.513137
    18  H    6.311007   5.133446   5.665449   3.440659   5.054702
    19  H    5.716201   4.813742   5.337862   2.832241   4.015907
    20  H    5.574036   5.372527   6.323458   4.156065   5.430940
    21  O    1.007971   3.429136   5.173901   4.865496   5.051176
    22  O    1.866979   2.281646   4.017658   3.668346   4.152565
                   16         17         18         19         20
    16  H    0.000000
    17  H    1.771540   0.000000
    18  H    4.089809   5.205014   0.000000
    19  H    2.550999   3.999005   1.772904   0.000000
    20  H    3.712977   4.779311   1.763849   1.770982   0.000000
    21  O    3.887083   2.866053   5.534987   4.941015   4.649736
    22  O    3.375886   2.559326   4.517539   4.126527   4.039514
                   21         22
    21  O    0.000000
    22  O    1.430665   0.000000
 Symmetry turned off by external request.
 Stoichiometry    C7H11O4(2)
 Framework group  C1[X(C7H11O4)]
 Deg. of freedom    60
 Full point group                 C1      NOp   1
 Rotational constants (GHZ):      1.5198293      0.5407827      0.4847451
 Leave Link  202 at Thu Feb 18 19:17:42 2021, MaxMem=    33554432 cpu:         0.0
 (Enter /apps/applications/gaussian/G09.D01/2/default/g09/l716.exe)
 Dipole        = 1.26234284D+00-7.25541268D-01 3.73274442D-01
 Polarizability= 5.86606351D+01-9.73021559D+00 6.77258635D+01
                -1.05251594D+01 6.41756227D-01 6.23609452D+01
 HyperPolar    = 5.74702872D+01-2.04301971D+01-1.05263871D+01
                -2.69798221D+01 1.38813511D+01-2.38531195D+01
                 3.58223783D+01-3.08879324D+01-3.03481419D+01
                 4.35172069D+01
 Full mass-weighted force constant matrix:
 Low frequencies ---  -10.9958   -1.6251   -1.0984   -0.6004    0.1722    1.5463
 Low frequencies ---    2.1009    9.5035   17.9905
 ******    1 imaginary frequencies (negative Signs) ****** 
 Diagonal vibrational polarizability:
      374.6369287     248.0494187     699.2787546
 Harmonic frequencies (cm**-1), IR intensities (KM/Mole), Raman scattering
 activities (A**4/AMU), depolarization ratios for plane and unpolarized
 incident light, reduced masses (AMU), force constants (mDyne/A),
 and normal coordinates:
                      1                      2                      3
                      A                      A                      A
 Frequencies --    -10.9853                 9.4970                17.9868
 Red. masses --      5.9889                 7.6009                 7.4344
 Frc consts  --      0.0004                 0.0004                 0.0014
 IR Inten    --      1.7939                 2.2526                 0.4711
  Atom  AN      X      Y      Z        X      Y      Z        X      Y      Z
     1   8     0.27   0.08   0.03    -0.03  -0.09   0.12    -0.13  -0.17  -0.13
     2   6     0.24   0.08   0.00     0.01  -0.21   0.45     0.49   0.12  -0.15
     3   6    -0.24  -0.03   0.06     0.00   0.11  -0.14    -0.04   0.08   0.03
     4   6    -0.17   0.00   0.15     0.00   0.05  -0.04    -0.03   0.11   0.01
     5   6    -0.14  -0.01   0.08    -0.04   0.07   0.04     0.04   0.09   0.05
     6   6    -0.05  -0.03  -0.04    -0.01   0.04   0.01     0.02   0.04   0.10
     7   1    -0.01  -0.03  -0.08    -0.04   0.04   0.10     0.04   0.03   0.14
     8   6     0.05   0.00  -0.03     0.08  -0.07  -0.04    -0.02  -0.02   0.07
     9   8     0.05  -0.01  -0.07     0.15  -0.05  -0.15     0.00  -0.01   0.06
    10   6     0.17   0.06   0.03     0.09  -0.20   0.05    -0.07  -0.09   0.06
    11   1     0.12   0.02   0.00    -0.17   0.15  -0.13    -0.41  -0.28  -0.20
    12   1    -0.25  -0.05  -0.09    -0.01   0.14  -0.16    -0.03   0.05   0.05
    13   1    -0.28  -0.04   0.13     0.02   0.11  -0.20    -0.07   0.09   0.01
    14   1    -0.06   0.02   0.18     0.04  -0.02  -0.05    -0.08   0.10  -0.01
    15   1    -0.23   0.01   0.25    -0.02   0.07  -0.02    -0.01   0.16  -0.03
    16   1    -0.09   0.02   0.16    -0.04   0.03   0.12     0.05   0.12   0.03
    17   1    -0.24  -0.04   0.06    -0.08   0.15   0.05     0.08   0.11   0.06
    18   1     0.23   0.09   0.06     0.16  -0.29   0.00    -0.10  -0.13   0.03
    19   1     0.14   0.08   0.12     0.07  -0.22   0.10    -0.06  -0.09   0.03
    20   1     0.23   0.06  -0.03     0.05  -0.21   0.12    -0.11  -0.09   0.13
    21   8    -0.04  -0.03  -0.02    -0.19   0.16  -0.14    -0.17  -0.11  -0.21
    22   8    -0.15  -0.09  -0.17    -0.02   0.14  -0.07     0.06   0.04   0.15
                      4                      5                      6
                      A                      A                      A
 Frequencies --     30.6439                34.4606                51.0340
 Red. masses --      3.4499                 6.6749                 4.0518
 Frc consts  --      0.0019                 0.0047                 0.0062
 IR Inten    --      0.9983                 1.9530                 4.0417
  Atom  AN      X      Y      Z        X      Y      Z        X      Y      Z
     1   8     0.11   0.01   0.02     0.28  -0.14   0.15    -0.06   0.01  -0.05
     2   6    -0.09  -0.03  -0.09    -0.15  -0.12  -0.38     0.03   0.00   0.06
     3   6    -0.06  -0.03   0.27     0.06   0.09  -0.23    -0.09   0.03  -0.16
     4   6    -0.07   0.08   0.02     0.06  -0.02  -0.01    -0.02   0.01   0.03
     5   6     0.04   0.05  -0.06    -0.05   0.01   0.09    -0.03   0.02   0.05
     6   6     0.02   0.02  -0.01    -0.04   0.03   0.07     0.02  -0.02  -0.01
     7   1     0.02   0.01   0.04    -0.06   0.03   0.07     0.07  -0.02  -0.04
     8   6     0.01  -0.04  -0.03    -0.01   0.03   0.07     0.04   0.04   0.02
     9   8     0.11   0.03  -0.03     0.03   0.06   0.07     0.21   0.19   0.11
    10   6    -0.13  -0.19  -0.06    -0.04  -0.02   0.07    -0.17  -0.11  -0.07
    11   1     0.14   0.02   0.04     0.23  -0.09   0.14     0.03  -0.01   0.01
    12   1    -0.02  -0.10   0.37     0.02   0.18  -0.35    -0.12   0.05  -0.36
    13   1    -0.09  -0.04   0.36     0.11   0.09  -0.28    -0.11   0.03  -0.11
    14   1    -0.26   0.20   0.00     0.20  -0.15  -0.01     0.12  -0.04   0.05
    15   1     0.01   0.09  -0.12     0.01  -0.03   0.08    -0.09   0.04   0.15
    16   1     0.07   0.13  -0.16    -0.07  -0.07   0.18    -0.01   0.01   0.12
    17   1     0.13  -0.04  -0.06    -0.10   0.12   0.10    -0.09   0.05   0.05
    18   1    -0.17  -0.28  -0.12     0.03   0.00   0.09     0.00  -0.03   0.00
    19   1    -0.11  -0.22  -0.13    -0.07  -0.13   0.09    -0.21  -0.45  -0.11
    20   1    -0.22  -0.19   0.06    -0.13   0.03   0.03    -0.47   0.05  -0.17
    21   8    -0.02   0.05  -0.03    -0.17   0.03  -0.06     0.11  -0.07   0.07
    22   8     0.04   0.04   0.00    -0.04   0.05   0.07    -0.04  -0.09  -0.05
                      7                      8                      9
                      A                      A                      A
 Frequencies --     74.0398                78.6431                91.1332
 Red. masses --     11.2496                 1.0717                 7.6974
 Frc consts  --      0.0363                 0.0039                 0.0377
 IR Inten    --      0.9575                 0.1518                 1.1508
  Atom  AN      X      Y      Z        X      Y      Z        X      Y      Z
     1   8    -0.31  -0.32   0.48     0.00   0.00   0.00    -0.04   0.16   0.37
     2   6     0.19   0.21  -0.27     0.00   0.00   0.00    -0.16   0.23   0.07
     3   6    -0.01  -0.02   0.03    -0.01  -0.01  -0.03    -0.13  -0.07  -0.08
     4   6    -0.02  -0.02   0.00     0.00  -0.01   0.01    -0.01   0.02  -0.01
     5   6    -0.04  -0.02  -0.05     0.00  -0.01   0.00     0.11  -0.02  -0.06
     6   6    -0.03   0.02  -0.08     0.00   0.00   0.00     0.10  -0.05  -0.03
     7   1    -0.06   0.02  -0.07     0.00   0.00  -0.01     0.13  -0.05  -0.06
     8   6     0.03   0.00  -0.09     0.00   0.01   0.00     0.05   0.00   0.00
     9   8     0.07   0.02  -0.14     0.03   0.04   0.02     0.03   0.01   0.07
    10   6     0.06  -0.03  -0.04    -0.02  -0.01  -0.01     0.01   0.07  -0.07
    11   1     0.19   0.31   0.11     0.01   0.00   0.00    -0.07  -0.39  -0.19
    12   1    -0.04   0.03  -0.12    -0.02   0.00  -0.08    -0.09  -0.18  -0.07
    13   1     0.04  -0.06   0.21    -0.01  -0.01  -0.01    -0.25  -0.03  -0.14
    14   1    -0.03   0.02   0.00     0.05  -0.02   0.02     0.06   0.05   0.02
    15   1    -0.01  -0.06   0.00    -0.02  -0.01   0.05    -0.07   0.10   0.08
    16   1    -0.04  -0.02  -0.06    -0.01  -0.01   0.00     0.14   0.06  -0.14
    17   1    -0.06  -0.05  -0.06    -0.01  -0.01   0.00     0.19  -0.09  -0.07
    18   1     0.09  -0.06  -0.06    -0.45  -0.27  -0.23    -0.02   0.12  -0.04
    19   1     0.05  -0.02   0.00     0.13   0.52  -0.17     0.03   0.05  -0.12
    20   1     0.08  -0.05  -0.02     0.30  -0.27   0.41     0.01   0.08  -0.11
    21   8     0.14   0.16   0.18     0.00   0.00   0.00    -0.10  -0.21  -0.30
    22   8    -0.06   0.04  -0.13    -0.01  -0.01  -0.01     0.13  -0.08   0.04
                     10                     11                     12
                      A                      A                      A
 Frequencies --    116.0201               120.9562               162.9709
 Red. masses --      2.9335                 1.0907                 3.2860
 Frc consts  --      0.0233                 0.0094                 0.0514
 IR Inten    --      0.1313                 0.1907                 0.2863
  Atom  AN      X      Y      Z        X      Y      Z        X      Y      Z
     1   8     0.00   0.03   0.05     0.00  -0.01   0.01     0.00   0.00   0.02
     2   6    -0.03   0.03   0.01     0.00   0.00  -0.01    -0.01   0.01   0.00
     3   6     0.19   0.13   0.10     0.02   0.01   0.01     0.07   0.09   0.03
     4   6     0.01   0.04  -0.11    -0.02  -0.01  -0.02     0.10   0.01   0.25
     5   6    -0.09   0.08   0.06    -0.02   0.00   0.01    -0.01   0.03   0.11
     6   6    -0.02   0.00   0.00    -0.02   0.00   0.00     0.07   0.06  -0.02
     7   1     0.07  -0.01  -0.01    -0.01   0.00  -0.01     0.11   0.05  -0.02
     8   6     0.00   0.00   0.00     0.00   0.01   0.00    -0.02  -0.01  -0.04
     9   8     0.02   0.01  -0.01     0.03   0.03  -0.01    -0.14  -0.10  -0.05
    10   6     0.01  -0.01   0.02     0.01   0.00   0.01    -0.12  -0.05  -0.10
    11   1    -0.05  -0.15  -0.06    -0.04  -0.02  -0.01    -0.05   0.01  -0.12
    12   1     0.13   0.29  -0.02     0.15  -0.13   0.68     0.08   0.09   0.09
    13   1     0.39   0.03   0.38    -0.10   0.17  -0.66     0.05   0.14  -0.21
    14   1    -0.22  -0.01  -0.17    -0.02  -0.03  -0.03     0.37   0.00   0.31
    15   1     0.16  -0.02  -0.35    -0.01   0.01  -0.03    -0.03  -0.07   0.49
    16   1    -0.09   0.00   0.24    -0.02  -0.01   0.02     0.00   0.01   0.19
    17   1    -0.20   0.25   0.08    -0.03   0.01   0.01    -0.15  -0.01   0.08
    18   1    -0.02  -0.05  -0.01     0.01  -0.02   0.00    -0.18  -0.06  -0.12
    19   1     0.02   0.04   0.02     0.01   0.01   0.02    -0.09  -0.08  -0.19
    20   1     0.04  -0.04   0.06     0.02  -0.01   0.03    -0.19  -0.04  -0.06
    21   8     0.01  -0.15  -0.04     0.01  -0.02   0.01     0.07   0.00  -0.07
    22   8    -0.10  -0.12  -0.07    -0.02  -0.02   0.00     0.01   0.01  -0.10
                     13                     14                     15
                      A                      A                      A
 Frequencies --    178.4935               239.9692               295.2274
 Red. masses --      4.7505                 1.1593                 2.6085
 Frc consts  --      0.0892                 0.0393                 0.1340
 IR Inten    --      6.6386                98.8350                 1.4070
  Atom  AN      X      Y      Z        X      Y      Z        X      Y      Z
     1   8    -0.03  -0.02  -0.01    -0.04   0.00  -0.02    -0.01   0.00   0.00
     2   6     0.03   0.00  -0.01     0.02   0.01   0.02     0.00   0.00   0.01
     3   6     0.00   0.01   0.02     0.02   0.02   0.00    -0.04  -0.03   0.00
     4   6    -0.04   0.02  -0.09     0.02   0.01   0.02    -0.09  -0.07  -0.05
     5   6     0.04   0.02   0.09     0.01   0.01  -0.02    -0.10  -0.04   0.18
     6   6     0.13  -0.13   0.03     0.00   0.01  -0.01     0.02   0.01  -0.02
     7   1     0.17  -0.13   0.10     0.02   0.01  -0.02    -0.06   0.02  -0.06
     8   6     0.07  -0.09   0.05    -0.01   0.01   0.00     0.03   0.00  -0.03
     9   8    -0.02  -0.09   0.28     0.00   0.00  -0.03     0.02  -0.02  -0.07
    10   6    -0.03   0.09  -0.13     0.00   0.00   0.01    -0.02   0.04  -0.11
    11   1     0.24   0.31   0.04     0.89  -0.18   0.38     0.28  -0.14   0.11
    12   1     0.03  -0.04   0.18     0.02   0.02   0.02    -0.05   0.01   0.02
    13   1    -0.02   0.03  -0.08     0.01   0.03  -0.05     0.01  -0.05   0.02
    14   1    -0.23  -0.03  -0.15     0.06   0.03   0.03    -0.26  -0.19  -0.12
    15   1     0.05   0.11  -0.27     0.00  -0.01   0.06     0.00   0.00  -0.23
    16   1     0.09   0.02   0.23     0.01   0.02  -0.07    -0.08  -0.15   0.51
    17   1    -0.02   0.15   0.10     0.05  -0.03  -0.02    -0.38   0.18   0.18
    18   1    -0.19   0.20  -0.07     0.01  -0.01   0.00    -0.10   0.08  -0.09
    19   1     0.03   0.10  -0.27     0.00  -0.01   0.02     0.01   0.05  -0.19
    20   1    -0.01   0.10  -0.19     0.00   0.00   0.01    -0.02   0.05  -0.12
    21   8    -0.13   0.18   0.00    -0.05  -0.01  -0.01     0.07   0.00  -0.04
    22   8     0.01  -0.05  -0.21    -0.01  -0.04   0.01     0.12   0.09   0.13
                     16                     17                     18
                      A                      A                      A
 Frequencies --    314.0075               374.7274               422.6676
 Red. masses --      3.4534                 4.0570                 4.5907
 Frc consts  --      0.2006                 0.3356                 0.4832
 IR Inten    --      1.2237                 5.8312                 4.0753
  Atom  AN      X      Y      Z        X      Y      Z        X      Y      Z
     1   8     0.01   0.00   0.00     0.00   0.00   0.00     0.00   0.00   0.00
     2   6     0.00   0.00   0.00     0.00   0.00   0.00     0.00   0.00   0.00
     3   6     0.05   0.20   0.01     0.01   0.16   0.00     0.00   0.09   0.01
[...]
 0013495,-0.00000620,0.00004620,0.00018273,-0.00004653,-0.00009266,0.02
 153864,0.00510913,-0.03062121,0.01368589,-0.00141486,0.00539860,-0.000
 04859,-0.00005237,-0.00033777,-0.00000156,-0.00022596,-0.00024931,0.00
 001572,-0.00003962,-0.00000614,0.00065419,-0.00140354,-0.00025649,-0.0
 0017968,0.00088774,0.00041666,-0.00024656,0.00033624,0.00014697,0.0000
 7454,0.00023703,0.00024946,-0.03415163,0.00087362,0.01747897,-0.000058
 32,0.00007732,0.00005140,0.00004546,-0.00009151,-0.00003566,-0.0442736
 3,-0.04694574,-0.00712528,0.00116756,0.01962950,0.00556247,-0.00129847
 ,0.00141545,0.00071707,-0.00013476,0.00001603,0.00005564,0.00000958,-0
 .00001825,0.00000150,0.00009777,-0.00012042,-0.00005064,-0.00004774,0.
 00011741,0.00002464,-0.00005029,0.00003439,0.00005814,0.00003732,-0.00
 000502,-0.00002467,-0.00745912,-0.02187416,-0.00166183,0.05186776,0.00
 015512,-0.00017786,-0.00012966,-0.00016227,0.00019519,0.00013255,-0.04
 436788,-0.21639701,-0.03584941,0.00499724,-0.02727924,-0.00848435,0.00
 109602,-0.00075691,-0.00068386,-0.00002878,0.00012719,0.00003499,0.000
 01415,-0.00003534,0.00000261,-0.00005244,0.00000871,-0.00035991,0.0000
 8346,-0.00007171,0.00019203,-0.00001284,0.00004422,0.00021854,-0.00008
 877,-0.00002582,0.00005394,-0.00889750,-0.00946469,-0.00265847,0.04620
 331,0.25436055,-0.00000266,-0.00005348,-0.00003841,0.00002463,0.000047
 67,0.00002344,-0.00579708,-0.03444500,-0.03214425,0.00071707,-0.013127
 15,0.00162880,0.00132122,-0.00049095,-0.00013538,0.00006623,0.00021816
 ,-0.00001847,0.00000914,-0.00001365,0.00000018,0.00027962,-0.00087652,
 0.00009666,-0.00005998,0.00058684,0.00005017,-0.00009518,0.00026195,0.
 00003243,0.00003626,0.00008558,0.00012713,0.00124312,-0.00009805,0.009
 08659,0.00199746,0.04823646,0.02080034,0.00003962,-0.00006236,-0.00005
 336,-0.00003787,0.00006196,0.00004669,-0.01161652,0.00664600,0.0226369
 7,-0.03687065,-0.00948583,0.03797518,-0.00042500,-0.00849493,0.0091283
 3,-0.00032228,-0.00020743,0.00045725,0.00005552,-0.00005305,-0.0000033
 5,-0.00079108,-0.00219869,-0.00138812,-0.00009588,0.00059361,0.0001232
 7,-0.00047417,0.00033125,0.00027219,-0.00002141,0.00003598,0.00009266,
 -0.00089419,0.00076322,-0.00014695,-0.00012316,0.00032539,0.00052954,0
 .04964716,0.00003654,-0.00004715,-0.00003785,-0.00003927,0.00004994,0.
 00003687,0.00641346,0.00249714,-0.01268311,-0.00664674,-0.04009220,0.0
 2950155,-0.00965978,-0.01938591,0.02569691,-0.00021232,0.00002004,0.00
 068009,0.00011904,0.00000689,0.00007724,-0.00141193,0.00000415,-0.0010
 0764,-0.00003496,-0.00038697,0.00007129,0.00023740,-0.00008243,0.00023
 065,-0.00001137,0.00000124,0.00004224,0.00038968,-0.00063348,0.0002684
 1,0.00046885,-0.00006642,-0.00042335,0.01092536,0.05794640,-0.00003506
 ,0.00002733,0.00002027,0.00003754,-0.00003067,-0.00002314,0.01805771,-
 0.00943028,-0.02044491,0.03369222,0.03852457,-0.18853141,0.00465900,0.
 01218127,-0.00699764,0.00034750,-0.00025988,0.00020742,-0.00009598,0.0
 0000354,-0.00003881,-0.00069020,-0.00107757,0.00118053,0.00002518,0.00
 045560,-0.00051293,0.00055020,0.00079069,-0.00024272,0.00006285,0.0000
 5290,0.00000018,0.00049862,-0.00004170,-0.00027721,0.00013945,-0.00056
 869,-0.00004175,-0.05151065,-0.04287946,0.23615030,0.00006289,-0.00007
 207,-0.00005681,-0.00006135,0.00007494,0.00005322,-0.03557167,0.011320
 56,-0.00496379,-0.15818847,-0.02196973,-0.07714093,-0.01304112,-0.0150
 8742,-0.00650718,-0.00008683,-0.00072455,0.00016385,-0.00008270,-0.000
 11289,-0.00007563,0.00005517,-0.00006123,-0.00038096,0.00007011,-0.000
 02260,0.00018183,-0.00013569,0.00011435,0.00024701,-0.00006697,-0.0000
 0815,0.00005362,-0.00130538,0.00107239,0.00067144,0.00007731,0.0005429
 4,-0.00007073,0.00121163,0.00011449,-0.00526108,0.20644564,0.00003935,
 -0.00003791,-0.00002171,-0.00003995,0.00004327,0.00002711,0.01722599,0
 .00140398,0.00452592,-0.01849790,-0.03798189,-0.01022918,-0.02514278,-
 0.01690753,-0.01191051,-0.00086969,-0.00300152,0.00014455,-0.00037988,
 -0.00008961,-0.00029943,0.00004044,-0.00018064,0.00022866,0.00000513,0
 .00004839,0.00003330,0.00008714,0.00001980,0.00002932,-0.00003270,-0.0
 0002284,-0.00002211,0.00067998,-0.00073727,-0.00131689,0.00090396,-0.0
 0016396,0.00041094,0.00167701,0.00382359,0.00221712,0.02544485,0.05475
 271,-0.00001653,-0.00001018,-0.00002230,0.00002067,0.00000249,0.000013
 92,0.00281218,0.00065191,0.00455007,-0.07658330,-0.01308861,-0.0745852
 6,-0.00235334,-0.00391433,0.00227050,-0.00007580,0.00044647,0.00026389
 ,0.00005058,-0.00003754,0.00005961,-0.00025253,0.00016184,0.00003837,0
 .00010523,-0.00010773,-0.00002596,0.00022212,0.00012234,0.00009023,0.0
 0002086,0.00004441,0.00008841,0.00059959,-0.00058142,-0.00053656,0.000
 23024,-0.00002793,0.00064209,-0.01801005,-0.00005359,-0.02038160,0.092
 97130,0.01668569,0.08718440,0.00005579,-0.00007204,-0.00004428,-0.0000
 4797,0.00006816,0.00003777,0.00007374,-0.00094526,0.00000153,0.0036765
 8,0.00472585,0.00016110,-0.13839228,0.07908753,0.03639908,-0.03426699,
 0.00923605,-0.00261454,-0.00068667,-0.00036156,-0.00002987,-0.00032844
 ,0.00033892,-0.00127679,0.00013618,-0.00026645,0.00034032,-0.00038807,
 0.00009005,0.00034748,-0.00008165,0.00007070,-0.00001890,-0.00010353,0
 .00000454,0.00005037,0.00011651,0.00000386,-0.00008745,0.00030731,-0.0
 0000282,-0.00026559,0.00055682,-0.00052082,-0.00002908,0.17753799,-0.0
 0003598,0.00004342,0.00005098,0.00003325,-0.00004749,-0.00004129,-0.00
 077999,-0.00314663,0.00007225,0.01647453,-0.03378416,-0.00670479,0.078
 38267,-0.09161399,-0.02739513,0.00242705,0.00376077,0.00052592,-0.0009
 1297,0.00051767,-0.00018516,-0.00005715,-0.00034061,0.00087603,0.00000
 566,0.00016184,-0.00016025,0.00017496,-0.00040151,-0.00024137,0.000029
 40,0.00001839,-0.00012948,-0.00021699,0.00003231,0.00009623,0.00031937
 ,-0.00029102,-0.00024855,0.00030071,-0.00049154,0.00030146,-0.00006076
 ,-0.00082344,-0.00052131,-0.09553811,0.12240133,-0.00004734,0.00007051
 ,0.00002351,0.00004019,-0.00006645,-0.00001976,0.00009524,0.00036580,0
 .00010647,-0.00082114,-0.00100434,0.00342196,0.03961878,-0.02870690,-0
 .04623738,-0.01312334,0.00473029,0.00295526,-0.00023201,0.00003785,0.0
 0046115,-0.00151180,-0.00000821,0.00019768,0.00027472,-0.00021431,-0.0
 0007287,0.00071851,-0.00005050,0.00010870,0.00007523,0.00004333,-0.000
 02946,0.00002011,-0.00002377,0.00005570,-0.00002655,0.00002851,0.00004
 366,-0.00011140,0.00063181,0.00024306,-0.00008908,-0.00050217,0.000197
 79,-0.04096592,0.03537601,0.05190608,0.00027484,-0.00031084,-0.0002065
 2,-0.00022397,0.00031669,0.00017240,-0.00000161,0.00016110,0.00002252,
 0.00054244,-0.00752230,0.00702053,-0.03926473,-0.00552067,0.03245119,-
 0.00276294,-0.00027828,-0.02673091,-0.00017457,-0.00023080,-0.00047893
 ,-0.00227532,-0.00160850,-0.00067528,0.00014741,0.00070715,-0.00014816
 ,0.00033642,0.00019363,0.00004103,-0.00063967,-0.00005275,0.00000990,-
 0.00003252,0.00037496,-0.00005772,-0.00004362,0.00006941,-0.00003731,0
 .00014562,-0.00071688,0.00019254,-0.00024813,-0.00061937,0.00034544,-0
 .00557446,0.00120081,0.01871308,0.04889239,-0.00001496,-0.00007295,0.0
 0001116,0.00003285,0.00003706,-0.00002371,0.00014115,-0.00050126,0.000
 25025,-0.01017462,-0.01932778,0.02627218,-0.00569068,-0.04004478,0.033
 12575,-0.00027022,0.00404012,-0.00439221,-0.00034137,0.00005264,-0.000
 58123,-0.00084275,-0.00003486,0.00016293,0.00006869,0.00011001,-0.0002
 0687,0.00017319,-0.00014643,-0.00013205,-0.00008653,0.00015169,-0.0000
 4649,0.00036483,-0.00038371,0.00018921,-0.00008983,-0.00000734,0.00009
 732,-0.00099332,-0.00295891,0.00038146,-0.00052840,-0.00025092,0.00044
 721,0.00467944,0.00327733,-0.01047757,0.01319425,0.05602877,-0.0002122
 9,0.00016939,0.00000684,0.00017552,-0.00018886,-0.00003186,-0.00023163
 ,0.00024910,-0.00035541,0.00530823,0.01425984,-0.00769462,0.03125176,0
 .03468363,-0.19691543,-0.01483330,-0.00121283,-0.02886936,-0.00029045,
 -0.00062647,-0.00034019,-0.00118381,-0.00011398,-0.00128801,0.00032844
 ,-0.00013673,0.00023535,0.00014009,0.00004116,0.00039966,0.00026692,0.
 00009196,0.00048738,-0.00011238,0.00006398,0.00019788,0.00008521,-0.00
 001955,0.00009585,0.00017555,0.00035838,-0.00005965,0.00032285,0.00002
 059,0.00048483,0.00921396,-0.00210039,-0.01214889,-0.03124604,-0.04529
 810,0.24716908,-0.00000908,-0.00000121,-0.00000225,0.00000854,-0.00000
 007,0.00000235,-0.00001502,-0.00002670,-0.00002173,-0.00011124,0.00000
 784,0.00010355,-0.00002005,-0.00008700,0.00008503,-0.00034915,0.001050
 18,0.00126279,0.00002123,0.00012258,-0.00004374,-0.00176492,-0.0061314
 4,0.02178925,-0.00029991,0.00020360,-0.00116027,-0.03779802,-0.0056562
 0,0.00935780,0.00001337,-0.00002692,0.00002231,0.00003448,0.00000714,0
 .00000996,0.00000985,-0.00000885,0.00000008,0.00006138,-0.00001755,-0.
 00010749,0.00001045,-0.00000783,-0.00003762,0.00004271,0.00001647,-0.0
 0003447,0.00001291,0.00000300,-0.00000532,0.03922853,0.00005232,-0.000
 10536,-0.00006932,-0.00004638,0.00009991,0.00005368,-0.00001914,-0.000
 14135,0.00008173,-0.00007020,-0.00001408,0.00017180,-0.00001522,0.0000
 5145,-0.00000252,0.00124802,-0.00082084,-0.00131553,-0.00000976,-0.000
 07747,0.00014548,-0.00116107,0.01126759,-0.00525083,0.00051999,-0.0019
 9632,0.00069728,-0.00649681,-0.09540589,0.08649274,0.00000643,0.000127
 18,0.00007500,0.00003922,0.00006089,-0.00002878,0.00000424,0.00001390,
 -0.00004407,-0.00001793,0.00005548,-0.00021463,-0.00000091,0.00000398,
 -0.00003451,-0.00000107,0.00002306,-0.00001610,-0.00000819,0.00000381,
 0.00001821,0.00709884,0.10640903,-0.00006448,0.00010093,0.00007362,0.0
 0006056,-0.00009835,-0.00006356,0.00005318,0.00003214,0.00010876,0.000
 06314,0.00006180,0.00018935,-0.00009899,-0.00000335,0.00030393,0.00078
 937,-0.00051980,-0.00110195,0.00003166,0.00003564,0.00004194,0.0176198
 1,0.00286760,-0.03218301,-0.00219964,0.00196615,-0.00008351,0.00990918
 ,0.08464856,-0.15655974,0.00005112,-0.00004010,-0.00010835,0.00001022,
 -0.00001340,-0.00007031,-0.00001689,-0.00004523,-0.00003991,-0.0000952
 1,-0.00008663,-0.00014607,-0.00004297,-0.00002211,-0.00004535,-0.00002
 943,0.00003462,-0.00012802,0.00001252,0.00002560,-0.00005144,-0.020562
 53,-0.10245469,0.19632412,0.00005749,-0.00011653,-0.00009226,-0.000051
 39,0.00011005,0.00007252,-0.00007607,-0.00008944,-0.00007318,-0.000349
 35,0.00000227,0.00006771,-0.00022867,0.00019607,0.00021250,0.00039036,
 0.00000482,0.00086898,-0.00013300,-0.00021604,0.00024006,-0.03044873,0
 .01279955,0.00525809,0.00078414,-0.00002094,0.00124528,-0.19307720,0.0
 2528071,-0.05920217,0.00002250,0.00015052,0.00014649,0.00005768,0.0000
 6295,0.00004843,0.00001210,0.00001148,0.00001894,0.00022723,-0.0000137
 6,-0.00002796,0.00007610,-0.00004959,-0.00007088,0.00026397,-0.0000341
 6,-0.00006143,0.00002165,-0.00002789,0.00001007,-0.00142296,0.00390584
 ,-0.00666232,0.23744550,-0.00000149,-0.00001712,0.00000129,0.00000344,
 0.00001385,-0.00000362,0.00002748,-0.00010665,0.00009953,-0.00005552,0
 .00005913,0.00030826,0.00005205,-0.00021402,0.00008493,-0.00032876,-0.
 00030977,-0.00007693,-0.00014489,0.00023086,0.00029943,0.01703581,-0.0
 0079275,-0.00211015,0.00013173,-0.00136406,-0.00100701,0.02598146,-0.0
 3635425,0.01091923,0.00000036,-0.00001689,-0.00001558,0.00003996,0.000
 03204,-0.00005363,-0.00000332,-0.00002382,-0.00005146,-0.00005873,-0.0
 0020518,-0.00039230,-0.00003049,-0.00001366,-0.00008569,-0.00003343,0.
 00026084,-0.00003277,-0.00003219,0.00005469,-0.00001179,0.01196256,-0.
 00079768,0.00977642,-0.03654246,0.03884473,-0.00006113,0.00008574,0.00
 005581,0.00005590,-0.00008501,-0.00004696,-0.00000576,0.00006821,-0.00
 005450,-0.00008757,0.00007633,0.00006310,-0.00018124,0.00016553,-0.000
 16978,0.00088070,-0.00062287,-0.00205349,0.00029314,0.00008865,-0.0001
 1787,0.01681934,-0.00290497,0.00853756,0.00121943,-0.00303815,-0.00239
 646,-0.05953721,0.01097024,-0.05735172,0.00005450,-0.00001588,-0.00004
 896,0.00004200,-0.00000140,0.00002479,-0.00001422,-0.00003804,0.000019
 45,0.00001336,-0.00025206,-0.00002833,-0.00002156,-0.00004269,-0.00007
 354,-0.00017955,0.00008895,-0.00073690,-0.00006012,-0.00002183,-0.0001
 3058,-0.01673071,0.00730208,-0.01020702,0.06725329,-0.00945093,0.06456
 746,-0.00000823,-0.00001191,-0.00000753,0.00000781,0.00000897,0.000004
 58,-0.00000599,-0.00000134,0.00001199,-0.00004646,0.00002687,0.0000482
 8,-0.00014001,0.00012581,-0.00008156,-0.00088805,-0.00054916,0.0002435
 1,0.00023071,0.00005536,0.00035911,0.00905547,0.01159833,0.00610097,-0
 .00351334,0.00081210,-0.00007306,-0.05743024,-0.05974332,-0.01883071,0
 .00001305,-0.00003169,0.00001992,0.00002320,0.00000430,-0.00000870,0.0
 0000057,-0.00000995,-0.00000721,0.00001013,-0.00002436,-0.00003321,0.0
 0000610,-0.00001281,-0.00002369,0.00004003,-0.00004142,-0.00012112,-0.
 00002601,-0.00001167,-0.00003832,0.00252989,-0.00504094,0.00125806,-0.
 01350233,-0.01801629,-0.00924874,0.06383302,-0.00003196,0.00003302,0.0
 0004197,0.00002992,-0.00003465,-0.00003606,0.00004022,0.00002107,0.000
 11180,0.00006709,0.00000564,0.00009616,-0.00002154,-0.00029350,0.00035
 230,0.00006565,0.00014278,0.00049405,0.00000159,0.00056769,0.00015680,
 0.00505931,-0.02182392,-0.01954236,-0.00018264,0.00160209,0.00034879,-
 0.06195357,-0.17770810,-0.04717481,0.00001024,-0.00008044,-0.00009124,
 -0.00000363,-0.00001646,-0.00006541,-0.00000965,-0.00002170,-0.0000404
 9,-0.00006294,-0.00002267,-0.00007124,-0.00003146,-0.00000244,-0.00002
 929,-0.00003193,0.00011400,-0.00000884,0.00004450,0.00006927,-0.000024
 47,-0.00838851,-0.01894039,0.00363838,-0.00557306,0.00092061,-0.002552
 23,0.07100536,0.21569520,-0.00007596,0.00012269,0.00008554,0.00006901,
 -0.00011796,-0.00006942,0.00002647,0.00008290,0.00002237,0.00004749,0.
 00001467,0.00002836,-0.00005893,-0.00005501,0.00038142,0.00139185,0.00
 095176,-0.00108955,0.00016433,0.00007538,-0.00099481,0.00020471,-0.025
 73405,-0.00969806,0.00117133,0.00095451,-0.00096704,-0.02018437,-0.047
 07542,-0.04832914,0.00006095,-0.00004367,-0.00011697,0.00000392,-0.000
 03071,-0.00002078,-0.00000977,-0.00003235,-0.00000512,-0.00002444,-0.0
 0004950,0.00000755,-0.00002928,-0.00000539,-0.00002430,-0.00005046,-0.
 00002464,-0.00010739,0.00005277,0.00000247,-0.00005550,0.00587414,0.01
 489342,0.00374999,-0.00861405,-0.00831200,-0.00017895,0.02031781,0.064
 13219,0.05712019,-0.00014120,0.00144394,0.00155146,0.00007995,-0.00076
 419,-0.00052046,0.00001104,-0.00051969,-0.00007960,-0.00009306,-0.0000
 2890,0.00004718,-0.00297572,-0.00014134,0.00159926,-0.02772017,-0.0277
 1460,0.02907875,-0.00032751,0.00197878,0.00041403,-0.00373240,0.002662
 69,-0.00075086,0.00141878,-0.00097701,0.00015919,0.00025856,-0.0003070
 1,0.00106869,-0.01618090,0.02687319,0.04886374,-0.00036414,-0.00005309
 ,-0.00007297,-0.00008731,0.00008666,0.00001754,0.00002748,0.00000543,-
 0.00006147,0.00007668,0.00000759,0.00002290,0.00000858,-0.00007035,-0.
 00024276,0.00081820,0.00043743,0.00001393,-0.00009461,0.00012277,-0.00
 003585,0.00009024,-0.00002436,-0.00011234,-0.00008707,-0.00006952,-0.0
 0009465,0.08336854,0.00076380,-0.00103828,-0.00168521,-0.00021619,0.00
 035253,0.00036141,-0.00026180,-0.00054263,-0.00014336,-0.00025771,-0.0
 0003448,0.00003377,-0.00083174,0.00037473,0.00090534,-0.02834716,0.020
 49815,0.00453967,-0.00065921,-0.00043499,-0.00029023,0.00448954,-0.000
 91575,-0.00442562,-0.00027683,-0.00012528,0.00070204,-0.00003744,0.000
 30924,-0.00103985,0.00886177,-0.10336169,-0.08104635,0.00008097,0.0001
 0083,0.00001694,-0.00008241,0.00007453,0.00003761,0.00004880,0.0000296
 2,-0.00009050,0.00004924,0.00000370,0.00000307,-0.00012168,-0.00010357
 ,-0.00012047,0.00009659,-0.00013402,0.00017198,0.00007454,-0.00017266,
 -0.00006368,-0.00015371,0.00002095,-0.00000258,0.00002249,0.00003862,-
 0.00002149,0.04713965,0.31599484,0.00204887,-0.00387229,-0.00314243,-0
 .00085705,0.00188083,0.00078914,-0.00015428,-0.00025715,0.00051748,0.0
 0021460,0.00006547,0.00035216,-0.00102690,0.00021248,0.00114661,0.0294
 9174,0.01658922,-0.03065565,0.00132859,-0.00115495,-0.00146649,0.00399
 232,-0.00214261,0.00179053,-0.00032936,0.00068513,-0.00058670,0.000711
 54,-0.00006834,-0.00256991,0.04584477,-0.10316009,-0.15487870,0.000265
 48,0.00035015,-0.00025877,-0.00003876,-0.00001792,-0.00016107,-0.00014
 641,-0.00005266,-0.00013000,-0.00003285,0.00005044,-0.00011789,-0.0001
 4905,0.00005169,-0.00024046,0.00044496,0.00020640,-0.00058546,0.000057
 16,-0.00035612,0.00015016,-0.00049418,0.00011718,-0.00000150,0.0000498
 5,0.00033594,0.00014262,-0.12442475,-0.00356243,0.26288689,-0.00005765
 ,0.00008928,0.00043299,0.00001527,-0.00010250,-0.00017312,-0.00049870,
 -0.00080583,0.00027845,-0.00038660,0.00025272,0.00019407,-0.05075537,0
 .00494605,0.00315819,-0.15280652,0.08072742,0.05799674,-0.01416977,0.0
 1694493,0.01199481,-0.00544027,-0.00592001,0.02823417,-0.00132618,0.00
 208970,-0.00084282,0.00068960,-0.00055523,0.00015535,-0.00831837,-0.01
 353694,0.01920973,-0.00010877,-0.00054818,-0.00022460,0.00013707,0.000
 04302,-0.00010647,-0.00006068,0.00008108,-0.00017446,0.00013888,0.0000
 6196,0.00005144,-0.00294889,-0.00161952,-0.00216905,0.00007727,-0.0000
 2347,0.00085903,-0.00008809,-0.00011045,-0.00005127,-0.00015980,0.0000
 3718,-0.00038990,-0.00010284,0.00003559,-0.00024266,-0.03436150,-0.030
 39212,0.04319686,0.27055263,0.00039730,-0.00059252,-0.00061322,-0.0002
 4567,0.00046514,0.00028415,-0.00203956,-0.00120419,0.00037932,-0.00024
 477,-0.00027974,0.00027026,0.00173426,0.00589811,0.00217880,0.07586568
 ,-0.10775640,-0.02096046,0.03156445,-0.01910548,-0.01972326,-0.0114848
 0,0.00712032,0.00742994,0.00028804,0.00056054,-0.00177576,-0.00002687,
 0.00047997,0.00258268,0.00488196,0.01569964,0.01256504,0.00106703,-0.0
 0073111,-0.00070104,0.00005293,-0.00004074,-0.00007203,-0.00007249,-0.
 00006055,0.00012158,-0.00002133,0.00011203,-0.00007438,-0.00041169,0.0
 0042943,-0.00005435,0.00053914,0.00003951,-0.00039423,-0.00019333,0.00
 035457,0.00015889,0.00031355,-0.00022236,0.00018050,-0.00016451,-0.000
 26412,0.00027349,-0.05010114,-0.23093428,0.09409634,-0.05169208,0.3300
 2975,0.00043989,-0.00000672,-0.00058056,-0.00016538,0.00005600,0.00014
 492,-0.00016604,0.00002014,0.00038370,-0.00030285,-0.00023523,0.000224
 83,0.00172792,0.00150943,0.00816649,0.06487943,-0.03016738,-0.05946499
 ,0.01105088,-0.01135263,-0.00347485,0.02348994,0.00203135,-0.03661071,
 0.00017267,-0.00194593,0.00348551,-0.00058483,0.00075756,-0.00229585,0
 .01757501,0.03002512,-0.03870657,0.00018713,-0.00028573,-0.00037915,0.
 00008286,0.00001447,-0.00005952,0.00003962,-0.00007052,0.00004763,0.00
 000685,-0.00000092,-0.00007237,-0.00080978,0.00027910,0.00000107,0.000
 16222,0.00000815,-0.00055133,0.00014155,-0.00014502,-0.00015231,-0.000
 14412,-0.00000229,0.00032836,0.00006112,-0.00007119,0.00011903,0.04355
 361,0.08573259,-0.07297825,-0.16140030,-0.07616561,0.20242576\\0.00000
 002,-0.00000015,0.00000001,-0.00000002,0.00000014,-0.00000001,-0.00000
 025,0.00000014,0.00000014,0.00000026,0.00000011,-0.00000016,-0.0000000
 7,0.00000003,0.00000030,-0.00000032,-0.00000015,0.00000006,0.00000002,
 0.,-0.00000004,-0.00000019,0.00000043,0.00000023,0.00000012,-0.0000002
 3,0.00000002,-0.00000006,0.00000042,-0.00000053,0.00000009,-0.00000008
 ,-0.00000030,0.00000007,0.00000001,-0.00000002,0.00000001,-0.00000008,
 -0.00000003,-0.00000003,-0.00000002,-0.00000001,0.00000002,-0.00000004
 ,0.00000006,0.00000020,-0.00000009,-0.00000004,0.00000004,0.00000003,-
 0.00000013,0.00000004,-0.00000020,0.00000021,0.00000027,-0.00000002,0.
 00000009,-0.00000010,-0.00000034,-0.00000015,0.00000002,0.00000025,0.0
 0000011,-0.00000014,-0.00000015,0.00000019\\\@


 THE MOST SERIOUS THREAT TO THE SURVIVAL OF MANKIND IS NOT NOW
 IGNORANCE IN THE TRADITIONAL SENSE,
 BUT A MORALLY NEUTRAL, AN INSENSITIVE OR INHIBITED HUMAN INTELLIGENCE.

                     -- MARGO JEFFERSON IN NEWSWEEK, SEPTEMBER 2, 1974
 Job cpu time:       0 days  0 hours  0 minutes  1.8 seconds.
 File lengths (MBytes):  RWF=     55 Int=      0 D2E=      0 Chk=      2 Scr=      1
 Normal termination of Gaussian 09 at Thu Feb 18 19:17:42 2021.
