20
Properties=species:S:1:pos:R:3 energy=-12538.891869830146 pbc="F F F"
C        1.96081600       0.12608100       0.82174400
H        0.92932800       0.35430900       0.65883700
H        2.30540800       0.07458000       1.83140300
C        2.88126500      -0.13315700      -0.29547800
C        2.26628500       0.10169800      -1.68085900
C        1.93487200       1.57321700      -1.93952800
H        1.73645600       2.14681900      -1.00501300
C        2.96420300       2.32603000      -2.79305800
O        2.62063500       2.92398800      -3.78863000
C        4.38023200       2.31825900      -2.30588700
O        0.68821100       1.46264100      -2.68754700
O        0.13169300       2.75231400      -2.80879500
H        3.80361000       0.47800700      -0.17642600
H        3.23210400      -1.19168200      -0.23179600
H        2.93043300      -0.29669000      -2.47101600
H        1.32124300      -0.48554200      -1.77738900
H        4.46065500       2.64683900      -1.26146500
H        4.82747500       1.31695300      -2.37062400
H        5.01054600       2.99029400      -2.91038200
H        0.54085100       3.05101900      -3.69112800
