22
Properties=species:S:1:pos:R:3 energy=-15618.934636744681 pbc="F F F"
O       -1.88764344       1.00319543       3.71162860
C       -1.12087866       1.00878711       2.83925452
C        0.06809166       2.08320401       0.57201105
C        1.20343607       1.29475662       0.20481569
C        0.98466247      -0.20944793       0.45438623
C       -0.24349667      -0.79545330      -0.24324250
H       -0.33398138      -1.88961978      -0.04728069
C       -0.27654032      -0.47703537      -1.74951665
O       -0.92094269       0.44274351      -2.18731859
C        0.54019511      -1.39814077      -2.60247055
H       -2.22459046      -0.95612917       2.21364765
H       -1.37698790       0.75928883       0.42344649
H       -0.14629836       3.02588455       0.95471578
H        1.42495524       1.48205468      -0.87727706
H        2.12495983       1.61579664       0.74978795
H        1.89038891      -0.77587152       0.17090851
H        0.84594611      -0.36869423       1.55488033
H        0.05003382      -2.37675251      -2.71532053
H        0.66096270      -0.99254659      -3.62029063
H        1.54370309      -1.57980040      -2.19892011
O       -1.31630537      -0.61809181       2.07859698
O       -1.48966975      -0.27812800       0.31355754
