 Entering Gaussian System, Link 0=g09
 Initial command:
 /apps/applications/gaussian/G09.D01/2/default/g09/l1.exe "/nobackup/chmrsh/Scratch/Gau-49928.inp" -scrdir="/nobackup/chmrsh/Scratch/"
 Entering Link 1 = /apps/applications/gaussian/G09.D01/2/default/g09/l1.exe PID=     49929.
  
 Copyright (c) 1988,1990,1992,1993,1995,1998,2003,2009,2013,
            Gaussian, Inc.  All Rights Reserved.
  
 This is part of the Gaussian(R) 09 program.  It is based on
 the Gaussian(R) 03 system (copyright 2003, Gaussian, Inc.),
 the Gaussian(R) 98 system (copyright 1998, Gaussian, Inc.),
 the Gaussian(R) 94 system (copyright 1995, Gaussian, Inc.),
 the Gaussian 92(TM) system (copyright 1992, Gaussian, Inc.),
 the Gaussian 90(TM) system (copyright 1990, Gaussian, Inc.),
 the Gaussian 88(TM) system (copyright 1988, Gaussian, Inc.),
 the Gaussian 86(TM) system (copyright 1986, Carnegie Mellon
 University), and the Gaussian 82(TM) system (copyright 1983,
 Carnegie Mellon University). Gaussian is a federally registered
 trademark of Gaussian, Inc.
  
 This software contains proprietary and confidential information,
 including trade secrets, belonging to Gaussian, Inc.
  
 This software is provided under written license and may be
 used, copied, transmitted, or stored only in accord with that
 written license.
  
 The following legend is applicable only to US Government
 contracts under FAR:
  
                    RESTRICTED RIGHTS LEGEND
  
 Use, reproduction and disclosure by the US Government is
 subject to restrictions as set forth in subparagraphs (a)
 and (c) of the Commercial Computer Software - Restricted
 Rights clause in FAR 52.227-19.
  
 Gaussian, Inc.
 340 Quinnipiac St., Bldg. 40, Wallingford CT 06492
  
  
 ---------------------------------------------------------------
 Warning -- This program may not be used in any manner that
 competes with the business of Gaussian, Inc. or will provide
 assistance to any competitor of Gaussian, Inc.  The licensee
 of this program is prohibited from giving any competitor of
 Gaussian, Inc. access to this program.  By using this program,
 the user acknowledges that Gaussian, Inc. is engaged in the
 business of creating and licensing software in the field of
 computational chemistry and represents and warrants to the
 licensee that it is not a competitor of Gaussian, Inc. and that
 it will not use this program in any manner prohibited above.
 ---------------------------------------------------------------
  

 Cite this work as:
 Gaussian 09, Revision D.01,
 M. J. Frisch, G. W. Trucks, H. B. Schlegel, G. E. Scuseria, 
 M. A. Robb, J. R. Cheeseman, G. Scalmani, V. Barone, B. Mennucci, 
 G. A. Petersson, H. Nakatsuji, M. Caricato, X. Li, H. P. Hratchian, 
 A. F. Izmaylov, J. Bloino, G. Zheng, J. L. Sonnenberg, M. Hada, 
 M. Ehara, K. Toyota, R. Fukuda, J. Hasegawa, M. Ishida, T. Nakajima, 
 Y. Honda, O. Kitao, H. Nakai, T. Vreven, J. A. Montgomery, Jr., 
 J. E. Peralta, F. Ogliaro, M. Bearpark, J. J. Heyd, E. Brothers, 
 K. N. Kudin, V. N. Staroverov, T. Keith, R. Kobayashi, J. Normand, 
 K. Raghavachari, A. Rendell, J. C. Burant, S. S. Iyengar, J. Tomasi, 
 M. Cossi, N. Rega, J. M. Millam, M. Klene, J. E. Knox, J. B. Cross, 
 V. Bakken, C. Adamo, J. Jaramillo, R. Gomperts, R. E. Stratmann, 
 O. Yazyev, A. J. Austin, R. Cammi, C. Pomelli, J. W. Ochterski, 
 R. L. Martin, K. Morokuma, V. G. Zakrzewski, G. A. Voth, 
 P. Salvador, J. J. Dannenberg, S. Dapprich, A. D. Daniels, 
 O. Farkas, J. B. Foresman, J. V. Ortiz, J. Cioslowski, 
 and D. J. Fox, Gaussian, Inc., Wallingford CT, 2013.
 
 ******************************************
 Gaussian 09:  ES64L-G09RevD.01 24-Apr-2013
                 8-Jan-2021 
 ******************************************
 ----------------------------------------------------------------------
 #P b3lyp/3-21G scf=qc opt(calcall, ts, noeigentest, cartesian,maxcycle
 =100)
 ----------------------------------------------------------------------
 1/5=1,6=100,10=4,11=1,14=-1,18=10,26=3,38=1/1,3;
 2/12=2,17=6,18=5,29=2,40=1/2;
 3/5=5,11=2,16=1,25=1,30=1,71=2,74=-5,140=1/1,2,3;
 4//1;
 5/5=2,8=3,38=5/8;
 8/6=4,10=90,11=11/1;
 11/6=1,8=1,9=11,15=111,16=1/1,2,10;
 10/6=1/2;
 6/7=2,8=2,9=2,10=2,18=1,28=1/1;
 7/7=1,10=1,25=1/1,2,3,16;
 1/5=1,6=100,10=4,11=1,14=-1,18=10,26=3/3(3);
 2/29=1/2;
 7/7=1,8=1,9=1,25=1,44=-1/16;
 99/12=1/99;
 2/29=1/2;
 3/5=5,11=2,16=1,25=1,30=1,71=2,74=-5,140=1/1,2,3;
 4/5=5,16=3,69=1/1;
 5/5=2,8=3,38=5/8;
 8/6=4,10=90,11=11/1;
 11/6=1,8=1,9=11,15=111,16=1/1,2,10;
 10/6=1/2;
 7/7=1,10=1,25=1/1,2,3,16;
 1/5=1,6=100,10=4,11=1,14=-1,18=10,26=3/3(-8);
 2/29=1/2;
 6/7=2,8=2,9=2,10=2,18=1,19=2,28=1/1;
 7/7=1,8=1,9=1,25=1,44=-1/16;
 99/12=1/99;
 Leave Link    1 at Fri Jan  8 05:41:42 2021, MaxMem=           0 cpu:         0.0
 (Enter /apps/applications/gaussian/G09.D01/2/default/g09/l101.exe)
 ------------------------------
 Gaussian input prepared by ASE
 ------------------------------
 Symbolic Z-matrix:
 Charge =  0 Multiplicity = 2
 C                     0.20613   0.82073  -0.94302 
 C                     0.0515   -0.08104   0.19598 
 H                    -0.54319   0.6296   -1.72678 
 H                     1.20534   0.71953  -1.4016 
 H                     0.10814   1.87633  -0.63471 
 C                    -0.6656   -1.07995   0.67638 
 H                    -1.4098   -1.79833   0.69483 
 O                     0.89284  -0.02012   1.30837 
 H                     0.15463  -1.06674   1.83055 
 
 NAtoms=      9 NQM=        9 NQMF=       0 NMMI=      0 NMMIF=      0
                NMic=       0 NMicF=      0.
                    Isotopes and Nuclear Properties:
 (Nuclear quadrupole moments (NQMom) in fm**2, nuclear magnetic moments (NMagM)
  in nuclear magnetons)

  Atom         1           2           3           4           5           6           7           8           9
 IAtWgt=          12          12           1           1           1          12           1          16           1
 AtmWgt=  12.0000000  12.0000000   1.0078250   1.0078250   1.0078250  12.0000000   1.0078250  15.9949146   1.0078250
 NucSpn=           0           0           1           1           1           0           1           0           1
 AtZEff=   0.0000000   0.0000000   0.0000000   0.0000000   0.0000000   0.0000000   0.0000000   0.0000000   0.0000000
 NQMom=    0.0000000   0.0000000   0.0000000   0.0000000   0.0000000   0.0000000   0.0000000   0.0000000   0.0000000
 NMagM=    0.0000000   0.0000000   2.7928460   2.7928460   2.7928460   0.0000000   2.7928460   0.0000000   2.7928460
 AtZNuc=   6.0000000   6.0000000   1.0000000   1.0000000   1.0000000   6.0000000   1.0000000   8.0000000   1.0000000
 Leave Link  101 at Fri Jan  8 05:41:42 2021, MaxMem=    33554432 cpu:         0.1
 (Enter /apps/applications/gaussian/G09.D01/2/default/g09/l103.exe)

 GradGradGradGradGradGradGradGradGradGradGradGradGradGradGradGradGradGrad
 Berny optimization.
 Initialization pass.
 No Z-matrix variables, so optimization will use Cartesian coordinates.
 Trust Radius=3.00D-01 FncErr=1.00D-07 GrdErr=1.00D-06
 Number of steps in this run=    100 maximum allowed number of steps=    100.
 Search for a saddle point of order  1.
 GradGradGradGradGradGradGradGradGradGradGradGradGradGradGradGradGradGrad

 Leave Link  103 at Fri Jan  8 05:41:42 2021, MaxMem=    33554432 cpu:         0.0
 (Enter /apps/applications/gaussian/G09.D01/2/default/g09/l202.exe)
 ---------------------------------------------------------------------------------------------------
                            Z-MATRIX (ANGSTROMS AND DEGREES)
   CD    Cent   Atom    N1       Length/X        N2       Alpha/Y        N3        Beta/Z          J
 ---------------------------------------------------------------------------------------------------
      1      1  C        0   0.206132          0.820726         -0.943021
      2      2  C        0   0.051504         -0.081038          0.195978
      3      3  H        0  -0.543187          0.629595         -1.726777
      4      4  H        0   1.205340          0.719533         -1.401600
      5      5  H        0   0.108143          1.876326         -0.634707
      6      6  C        0  -0.665601         -1.079951          0.676382
      7      7  H        0  -1.409801         -1.798332          0.694826
      8      8  O        0   0.892836         -0.020116          1.308371
      9      9  H        0   0.154634         -1.066743          1.830547
 ---------------------------------------------------------------------------------------------------
                         Z-Matrix orientation:                         
 ---------------------------------------------------------------------
 Center     Atomic      Atomic             Coordinates (Angstroms)
 Number     Number       Type             X           Y           Z
 ---------------------------------------------------------------------
      1          6           0        0.206132    0.820726   -0.943021
      2          6           0        0.051504   -0.081038    0.195978
      3          1           0       -0.543187    0.629595   -1.726777
      4          1           0        1.205340    0.719533   -1.401600
      5          1           0        0.108143    1.876326   -0.634707
      6          6           0       -0.665601   -1.079951    0.676382
      7          1           0       -1.409801   -1.798332    0.694826
      8          8           0        0.892836   -0.020116    1.308371
      9          1           0        0.154634   -1.066743    1.830547
 ---------------------------------------------------------------------
                    Distance matrix (angstroms):
                    1          2          3          4          5
     1  C    0.000000
     2  C    1.460961   0.000000
     3  H    1.101038   2.134396   0.000000
     4  H    1.104061   2.127089   1.780780   0.000000
     5  H    1.104061   2.127092   1.780783   1.769219   0.000000
     6  C    2.644799   1.320173   2.951730   3.325143   3.325239
     7  H    3.486151   2.309407   3.536950   4.192089   4.192246
     8  O    2.499469   1.396054   3.420002   2.826426   2.826268
     9  H    3.355276   1.911561   4.002384   3.839472   3.839440
                    6          7          8          9
     6  C    0.000000
     7  H    1.034526   0.000000
     8  O    1.987810   2.973319   0.000000
     9  H    1.416001   2.067013   1.383126   0.000000
 Stoichiometry    C3H5O(2)
 Framework group  C1[X(C3H5O)]
 Deg. of freedom    21
 Full point group                 C1      NOp   1
 Largest Abelian subgroup         C1      NOp   1
 Largest concise Abelian subgroup C1      NOp   1
                         Standard orientation:                         
 ---------------------------------------------------------------------
 Center     Atomic      Atomic             Coordinates (Angstroms)
 Number     Number       Type             X           Y           Z
 ---------------------------------------------------------------------
      1          6           0       -1.506734    0.122657   -0.000001
      2          6           0       -0.045793    0.115032   -0.000002
      3          1           0       -1.915156    1.145141   -0.000220
      4          1           0       -1.910282   -0.400182    0.884725
      5          1           0       -1.910290   -0.400570   -0.884494
      6          6           0        1.025252    0.886861    0.000001
      7          1           0        1.566419    1.768554   -0.000003
      8          8           0        0.688619   -1.072237   -0.000001
      9          1           0        1.824009   -0.282346    0.000004
 ---------------------------------------------------------------------
 Rotational constants (GHZ):     14.6520724      7.6689797      5.1974223
 Leave Link  202 at Fri Jan  8 05:41:42 2021, MaxMem=    33554432 cpu:         0.0
 (Enter /apps/applications/gaussian/G09.D01/2/default/g09/l301.exe)
 Standard basis: 3-21G (6D, 7F)
 Ernie: Thresh=  0.10000D-02 Tol=  0.10000D-05 Strict=F.
 There are    46 symmetry adapted cartesian basis functions of A   symmetry.
 There are    46 symmetry adapted basis functions of A   symmetry.
    46 basis functions,    75 primitive gaussians,    46 cartesian basis functions
    16 alpha electrons       15 beta electrons
       nuclear repulsion energy       112.7831024475 Hartrees.
 IExCor=  402 DFT=T Ex+Corr=B3LYP ExCW=0 ScaHFX=  0.200000
 ScaDFX=  0.800000  0.720000  1.000000  0.810000 ScalE2=  1.000000  1.000000
 IRadAn=      0 IRanWt=     -1 IRanGd=            0 ICorTp=0 IEmpDi=  4
 NAtoms=    9 NActive=    9 NUniq=    9 SFac= 1.00D+00 NAtFMM=   60 NAOKFM=F Big=F
 Integral buffers will be    131072 words long.
 Raffenetti 2 integral format.
 Two-electron integral symmetry is turned on.
 Leave Link  301 at Fri Jan  8 05:41:42 2021, MaxMem=    33554432 cpu:         0.0
 (Enter /apps/applications/gaussian/G09.D01/2/default/g09/l302.exe)
 NPDir=0 NMtPBC=     1 NCelOv=     1 NCel=       1 NClECP=     1 NCelD=      1
         NCelK=      1 NCelE2=     1 NClLst=     1 CellRange=     0.0.
 One-electron integrals computed using PRISM.
 NBasis=    46 RedAO= T EigKep=  3.89D-03  NBF=    46
 NBsUse=    46 1.00D-06 EigRej= -1.00D+00 NBFU=    46
 Precomputing XC quadrature grid using
 IXCGrd= 4 IRadAn=           0 IRanWt=          -1 IRanGd=           0 AccXCQ= 0.00D+00.
 Generated NRdTot=       0 NPtTot=           0 NUsed=           0 NTot=          32
 NSgBfM=    46    46    46    46    46 MxSgAt=     9 MxSgA2=     9.
 Leave Link  302 at Fri Jan  8 05:41:43 2021, MaxMem=    33554432 cpu:         0.1
 (Enter /apps/applications/gaussian/G09.D01/2/default/g09/l303.exe)
 DipDrv:  MaxL=1.
 Leave Link  303 at Fri Jan  8 05:41:43 2021, MaxMem=    33554432 cpu:         0.0
 (Enter /apps/applications/gaussian/G09.D01/2/default/g09/l401.exe)
 ExpMin= 1.83D-01 ExpMax= 3.22D+02 ExpMxC= 3.22D+02 IAcc=1 IRadAn=         1 AccDes= 0.00D+00
 Harris functional with IExCor=  402 and IRadAn=       1 diagonalized for initial guess.
 HarFok:  IExCor=  402 AccDes= 0.00D+00 IRadAn=         1 IDoV= 1 UseB2=F ITyADJ=14
 ICtDFT=  3500011 ScaDFX=  1.000000  1.000000  1.000000  1.000000
 FoFCou: FMM=F IPFlag=           0 FMFlag=      100000 FMFlg1=           0
         NFxFlg=           0 DoJE=T BraDBF=F KetDBF=T FulRan=T
         wScrn=  0.000000 ICntrl=     500 IOpCl=  0 I1Cent=   200000004 NGrid=           0
         NMat0=    1 NMatS0=      1 NMatT0=    0 NMatD0=    1 NMtDS0=    0 NMtDT0=    0
 Petite list used in FoFCou.
 Harris En= -191.301287038929    
 JPrj=0 DoOrth=F DoCkMO=F.
 Initial guess <Sx>= 0.0000 <Sy>= 0.0000 <Sz>= 0.5000 <S**2>= 0.7500 S= 0.5000
 Leave Link  401 at Fri Jan  8 05:41:43 2021, MaxMem=    33554432 cpu:         0.2
 (Enter /apps/applications/gaussian/G09.D01/2/default/g09/l508.exe)
 Direct SCF.
 Tight linear equation convergence will be used.
 UB3LYP wavefunction.
 Quadratic Convergence SCF Method.
 Line search only if initial step raises energy.
 Integral symmetry usage will be decided dynamically.
 ReadGW:  IGet=1 IStart=         402 Next=         402 LGW=           0.
 Keep R1 and R2 ints in memory in canonical form, NReq=2054798.
 FoFCou: FMM=F IPFlag=           0 FMFlag=           0 FMFlg1=           0
         NFxFlg=           0 DoJE=F BraDBF=F KetDBF=F FulRan=T
         wScrn=  0.000000 ICntrl=     600 IOpCl=  0 I1Cent=           0 NGrid=           0
         NMat0=    1 NMatS0=   1081 NMatT0=    0 NMatD0=    1 NMtDS0=    0 NMtDT0=    0
 Symmetry not used in FoFCou.
 Iteration   1 EE= -191.222354939648                                    Grad=4.112D-01 Max rot=    3.7680 deg.
 Gradient too large for Newton-Raphson -- use scaled steepest descent instead.
 Alpha Gap=     0.230 HL deriv= 5.98D-07
  Beta Gap=     0.111 HL deriv= 3.26D-07
     ILin= 1 X=0.000D+00 Y=-1.912223549396D+02 DE= 0.00D+00 F= -3.61D-01
     ILin= 2 X=3.000D-01 Y=-1.912951228529D+02 DE=-7.28D-02 F= -1.24D-01
     ILin= 3 X=5.000D-01 Y=-1.913041205087D+02 DE=-8.18D-02 F=  3.35D-02
     Accept linear search using points  2 and  3.
     An  expanding polynomial of degree  3 produced  0.3871
 Iteration   2 EE= -191.302910785385     Delta-E=       -0.080555845737 Grad=1.064D-01 Max rot=    1.1469 deg.
 Gradient too large for Newton-Raphson -- use scaled steepest descent instead.
 Alpha Gap=     0.261 HL deriv= 4.87D-07
  Beta Gap=     0.115 HL deriv= 1.94D-07
     ILin= 1 X=0.000D+00 Y=-1.913029107854D+02 DE= 0.00D+00 F= -2.00D-02
     ILin= 2 X=3.000D-01 Y=-1.913073491440D+02 DE=-4.44D-03 F= -9.57D-03
     ILin= 3 X=6.000D-01 Y=-1.913086555374D+02 DE=-5.74D-03 F=  8.55D-04
     ILin= 4 X=1.000D+00 Y=-1.913055450691D+02 DE=-2.63D-03 F=  1.47D-02
     An  expanding polynomial of degree  4 produced  0.5754
     Minimum is close to point  3 DX= -2.46D-02 DF= -1.05D-05 DXR=  4.27D-02 DFR=  1.82D-03 which will be used.
 Iteration   3 EE= -191.308655537368     Delta-E=       -0.005744751983 Grad=5.413D-02 Max rot=    0.6123 deg.
 Gradient too large for Newton-Raphson -- use scaled steepest descent instead.
 Alpha Gap=     0.264 HL deriv= 3.96D-07
  Beta Gap=     0.118 HL deriv= 6.32D-09
     ILin= 1 X=0.000D+00 Y=-1.913086555374D+02 DE= 0.00D+00 F= -5.80D-03
     ILin= 2 X=5.000D-01 Y=-1.913096332598D+02 DE=-9.78D-04 F=  1.88D-03
     Accept linear search using points  1 and  2.
     An  expanding polynomial of degree  2 produced  0.2854
 Iteration   4 EE= -191.309683692016     Delta-E=       -0.001028154649 Grad=2.775D-02 Max rot=    0.3912 deg.
 Gradient too large for Newton-Raphson -- use scaled steepest descent instead.
 Alpha Gap=     0.262 HL deriv= 5.61D-08
  Beta Gap=     0.119 HL deriv= 1.23D-08
     ILin= 1 X=0.000D+00 Y=-1.913096836920D+02 DE= 0.00D+00 F= -1.12D-03
     ILin= 2 X=6.000D-01 Y=-1.913101734181D+02 DE=-4.90D-04 F= -5.09D-04
     ILin= 3 X=1.200D+00 Y=-1.913102940947D+02 DE=-6.10D-04 F=  1.07D-04
     Accept linear search using points  2 and  3.
     An  expanding polynomial of degree  3 produced  0.9947
 Iteration   5 EE= -191.310294429237     Delta-E=       -0.000610737220 Grad=9.262D-03 Max rot=    0.1325 deg.
 QCNR:  CnvC1=3.07D-09 CnvC2=3.07D-08
 LinEq1:  Iter=  0 NonCon=     1 RMS=5.08D-04 Max=7.35D-03 NDo=     1
 AX will form     1 AO Fock derivatives at one time.
 LinEq1:  Iter=  1 NonCon=     1 RMS=6.31D-04 Max=1.44D-02 NDo=     1
 LinEq1:  Iter=  2 NonCon=     1 RMS=4.79D-04 Max=7.25D-03 NDo=     1
 LinEq1:  Iter=  3 NonCon=     1 RMS=2.45D-04 Max=4.08D-03 NDo=     1
 LinEq1:  Iter=  4 NonCon=     1 RMS=2.02D-04 Max=2.67D-03 NDo=     1
 LinEq1:  Iter=  5 NonCon=     1 RMS=8.45D-05 Max=8.96D-04 NDo=     1
 LinEq1:  Iter=  6 NonCon=     1 RMS=3.66D-05 Max=2.13D-04 NDo=     1
 LinEq1:  Iter=  7 NonCon=     1 RMS=1.47D-05 Max=1.19D-04 NDo=     1
 LinEq1:  Iter=  8 NonCon=     1 RMS=3.76D-06 Max=3.67D-05 NDo=     1
 LinEq1:  Iter=  9 NonCon=     1 RMS=9.10D-07 Max=1.48D-05 NDo=     1
 LinEq1:  Iter= 10 NonCon=     1 RMS=2.14D-07 Max=1.99D-06 NDo=     1
 LinEq1:  Iter= 11 NonCon=     1 RMS=4.23D-08 Max=4.55D-07 NDo=     1
 LinEq1:  Iter= 12 NonCon=     1 RMS=7.00D-09 Max=8.81D-08 NDo=     1
 LinEq1:  Iter= 13 NonCon=     0 RMS=1.02D-09 Max=1.63D-08 NDo=     1
 Linear equations converged to 3.074D-09 3.074D-08 after    13 iterations.
 Angle between quadratic step and gradient=  53.44 degrees.
     ILin= 1 X=0.000D+00 Y=-1.913102944292D+02 DE= 0.00D+00 F= -2.18D-04
     ILin= 2 X=1.000D+00 Y=-1.913104031060D+02 DE=-1.09D-04 F=  7.36D-07
     Accept linear search using points  1 and  2.
     An  expanding polynomial of degree  2 produced  0.9966
     Minimum is close to point  2 DX= -3.36D-03 DF= -1.24D-09 DXR=  3.37D-03 DFR=  1.14D-05 which will be used.
 Iteration   6 EE= -191.310403106015     Delta-E=       -0.000108676778 Grad=4.589D-05 Max rot=    0.0011 deg.
 QCNR:  CnvC1=4.59D-10 CnvC2=4.59D-09
 LinEq1:  Iter=  0 NonCon=     1 RMS=3.22D-06 Max=6.97D-05 NDo=     1
 LinEq1:  Iter=  1 NonCon=     1 RMS=1.26D-06 Max=1.24D-05 NDo=     1
 LinEq1:  Iter=  2 NonCon=     1 RMS=8.82D-07 Max=1.29D-05 NDo=     1
 LinEq1:  Iter=  3 NonCon=     1 RMS=8.34D-07 Max=1.82D-05 NDo=     1
 LinEq1:  Iter=  4 NonCon=     1 RMS=8.10D-07 Max=1.60D-05 NDo=     1
 LinEq1:  Iter=  5 NonCon=     1 RMS=5.02D-07 Max=6.21D-06 NDo=     1
 LinEq1:  Iter=  6 NonCon=     1 RMS=1.75D-07 Max=1.36D-06 NDo=     1
 LinEq1:  Iter=  7 NonCon=     1 RMS=4.54D-08 Max=3.77D-07 NDo=     1
 LinEq1:  Iter=  8 NonCon=     1 RMS=1.96D-08 Max=1.46D-07 NDo=     1
 LinEq1:  Iter=  9 NonCon=     1 RMS=9.69D-09 Max=1.22D-07 NDo=     1
 LinEq1:  Iter= 10 NonCon=     1 RMS=2.48D-09 Max=2.49D-08 NDo=     1
 LinEq1:  Iter= 11 NonCon=     1 RMS=5.18D-10 Max=3.78D-09 NDo=     1
 LinEq1:  Iter= 12 NonCon=     0 RMS=1.09D-10 Max=1.39D-09 NDo=     1
 Linear equations converged to 4.589D-10 4.589D-09 after    12 iterations.
 Angle between quadratic step and gradient=  41.22 degrees.
     ILin= 1 X=0.000D+00 Y=-1.913104031060D+02 DE= 0.00D+00 F= -9.71D-09
     ILin= 2 X=1.000D+00 Y=-1.913104031109D+02 DE=-4.86D-09
 Iteration   7 EE= -191.310403110872     Delta-E=       -0.000000004858 Grad=3.227D-09 Max rot=    0.0000 deg.
 Rotation gradient small -- convergence achieved.
 SCF Done:  E(UB3LYP) =  -191.310403111     a.u. after    7 cycles
            Convg  =    0.3227D-08                    39 Fock formations.
              S**2 =  0.7573                  -V/T =  2.0077
 <Sx>= 0.0000 <Sy>= 0.0000 <Sz>= 0.5000 <S**2>= 0.7573 S= 0.5037
 <L.S>= 0.000000000000E+00
 Annihilation of the first spin contaminant:
 S**2 before annihilation     0.7573,   after     0.7500
 Leave Link  508 at Fri Jan  8 05:42:10 2021, MaxMem=    33554432 cpu:        27.1
 (Enter /apps/applications/gaussian/G09.D01/2/default/g09/l801.exe)
 DoSCS=F DFT=T ScalE2(SS,OS)=  1.000000  1.000000
 Range of M.O.s used for correlation:     1    46
 NBasis=    46 NAE=    16 NBE=    15 NFC=     0 NFV=     0
 NROrb=     46 NOA=    16 NOB=    15 NVA=    30 NVB=    31
 Leave Link  801 at Fri Jan  8 05:42:10 2021, MaxMem=    33554432 cpu:         0.0
 (Enter /apps/applications/gaussian/G09.D01/2/default/g09/l1101.exe)
 Using compressed storage, NAtomX=     9.
 Will process     10 centers per pass.
 Leave Link 1101 at Fri Jan  8 05:42:10 2021, MaxMem=    33554432 cpu:         0.1
 (Enter /apps/applications/gaussian/G09.D01/2/default/g09/l1102.exe)
 Symmetrizing basis deriv contribution to polar:
 IMax=3 JMax=2 DiffMx= 0.00D+00
 Leave Link 1102 at Fri Jan  8 05:42:10 2021, MaxMem=    33554432 cpu:         0.0
 (Enter /apps/applications/gaussian/G09.D01/2/default/g09/l1110.exe)
 Forming Gx(P) for the SCF density, NAtomX=     9.
 Integral derivatives from FoFJK, PRISM(SPDF).
 Do as many integral derivatives as possible in FoFJK.
 G2DrvN: MDV=      33554256.
 G2DrvN: will do    10 centers at a time, making    1 passes.
 Calling FoFCou, ICntrl=  3107 FMM=F I1Cent=   0 AccDes= 0.00D+00.
 FoFJK:  IHMeth= 1 ICntrl=    3107 DoSepK=F KAlg= 0 I1Cent=   0 FoldK=F
 IRaf=         0 NMat=   1 IRICut=       1 DoRegI=T DoRafI=F ISym2E= 0.
 FoFCou: FMM=F IPFlag=           0 FMFlag=      100000 FMFlg1=           0
         NFxFlg=           0 DoJE=F BraDBF=F KetDBF=F FulRan=T
         wScrn=  0.000000 ICntrl=    3107 IOpCl=  1 I1Cent=           0 NGrid=           0
         NMat0=    1 NMatS0=      1 NMatT0=    0 NMatD0=    1 NMtDS0=    0 NMtDT0=    0
 Symmetry not used in FoFCou.
 End of G2Drv F.D. properties file   721 does not exist.
 End of G2Drv F.D. properties file   722 does not exist.
 End of G2Drv F.D. properties file   788 does not exist.
 Leave Link 1110 at Fri Jan  8 05:42:20 2021, MaxMem=    33554432 cpu:        10.2
 (Enter /apps/applications/gaussian/G09.D01/2/default/g09/l1002.exe)
 Minotr:  UHF open shell wavefunction.
          IDoAtm=111111111
          Direct CPHF calculation.
          Differentiating once with respect to electric field.
                with respect to dipole field.
          Differentiating once with respect to nuclear coordinates.
          Requested convergence is 1.0D-08 RMS, and 1.0D-07 maximum.
          Secondary convergence is 1.0D-12 RMS, and 1.0D-12 maximum.
          NewPWx=T KeepS1=F KeepF1=F KeepIn=T MapXYZ=F SortEE=F KeepMc=T.
          MDV=      33554246 using IRadAn=       2.
 Generate precomputed XC quadrature information.
 Keep R1 and R2 ints in memory in canonical form, NReq=2035813.
 FoFCou: FMM=F IPFlag=           0 FMFlag=           0 FMFlg1=           0
         NFxFlg=           0 DoJE=F BraDBF=F KetDBF=F FulRan=T
         wScrn=  0.000000 ICntrl=     600 IOpCl=  0 I1Cent=           0 NGrid=           0
         NMat0=    1 NMatS0=   1081 NMatT0=    0 NMatD0=    1 NMtDS0=    0 NMtDT0=    0
 Symmetry not used in FoFCou.
          Solving linear equations simultaneously, MaxMat=       0.
          There are    30 degrees of freedom in the 1st order CPHF.  IDoFFX=6 NUNeed=     3.
     27 vectors produced by pass  0 Test12= 3.15D-15 3.33D-09 XBig12= 7.84D+01 3.69D+00.
 AX will form    27 AO Fock derivatives at one time.
     27 vectors produced by pass  1 Test12= 3.15D-15 3.33D-09 XBig12= 1.52D+01 1.01D+00.
     27 vectors produced by pass  2 Test12= 3.15D-15 3.33D-09 XBig12= 1.55D-01 8.71D-02.
     27 vectors produced by pass  3 Test12= 3.15D-15 3.33D-09 XBig12= 6.67D-04 5.77D-03.
     27 vectors produced by pass  4 Test12= 3.15D-15 3.33D-09 XBig12= 2.46D-06 3.10D-04.
     25 vectors produced by pass  5 Test12= 3.15D-15 3.33D-09 XBig12= 7.45D-09 1.49D-05.
      7 vectors produced by pass  6 Test12= 3.15D-15 3.33D-09 XBig12= 1.45D-11 5.59D-07.
      2 vectors produced by pass  7 Test12= 3.15D-15 3.33D-09 XBig12= 3.41D-14 3.60D-08.
 InvSVY:  IOpt=1 It=  1 EMax= 6.71D-15
 Solved reduced A of dimension   169 with    30 vectors.
 FullF1:  Do perturbations    1 to     3.
 Isotropic polarizability for W=    0.000000       32.18 Bohr**3.
 End of Minotr F.D. properties file   721 does not exist.
 End of Minotr F.D. properties file   722 does not exist.
 End of Minotr F.D. properties file   788 does not exist.
 Leave Link 1002 at Fri Jan  8 05:42:30 2021, MaxMem=    33554432 cpu:         9.8
 (Enter /apps/applications/gaussian/G09.D01/2/default/g09/l601.exe)
 Copying SCF densities to generalized density rwf, IOpCl= 1 IROHF=0.

 **********************************************************************

            Population analysis using the SCF density.

 **********************************************************************

 Orbital symmetries:
 Alpha Orbitals:
       Occupied  (A) (A) (A) (A) (A) (A) (A) (A) (A) (A) (A) (A)
                 (A) (A) (A) (A)
       Virtual   (A) (A) (A) (A) (A) (A) (A) (A) (A) (A) (A) (A)
                 (A) (A) (A) (A) (A) (A) (A) (A) (A) (A) (A) (A)
                 (A) (A) (A) (A) (A) (A)
 Beta  Orbitals:
       Occupied  (A) (A) (A) (A) (A) (A) (A) (A) (A) (A) (A) (A)
                 (A) (A) (A)
       Virtual   (A) (A) (A) (A) (A) (A) (A) (A) (A) (A) (A) (A)
                 (A) (A) (A) (A) (A) (A) (A) (A) (A) (A) (A) (A)
                 (A) (A) (A) (A) (A) (A) (A)
 The electronic state is 2-A.
 Alpha  occ. eigenvalues --  -19.05526 -10.19514 -10.14420 -10.13045  -1.04265
 Alpha  occ. eigenvalues --   -0.77032  -0.71355  -0.55695  -0.50824  -0.45020
 Alpha  occ. eigenvalues --   -0.44560  -0.40140  -0.37896  -0.35573  -0.23674
 Alpha  occ. eigenvalues --   -0.21297
 Alpha virt. eigenvalues --    0.02428   0.08936   0.13922   0.14499   0.17002
 Alpha virt. eigenvalues --    0.18765   0.24954   0.28742   0.44550   0.64064
 Alpha virt. eigenvalues --    0.69459   0.71489   0.77310   0.78306   0.84331
 Alpha virt. eigenvalues --    0.86698   0.89134   0.94959   1.02534   1.03139
 Alpha virt. eigenvalues --    1.03897   1.13025   1.19700   1.36421   1.49512
 Alpha virt. eigenvalues --    1.58161   1.67540   1.91186   1.97123   2.95409
  Beta  occ. eigenvalues --  -19.03782 -10.19641 -10.14414 -10.12354  -1.00587
  Beta  occ. eigenvalues --   -0.76542  -0.69397  -0.54707  -0.48958  -0.44521
  Beta  occ. eigenvalues --   -0.44289  -0.38400  -0.34771  -0.34682  -0.19812
  Beta virt. eigenvalues --   -0.08257   0.02856   0.10279   0.14200   0.14802
  Beta virt. eigenvalues --    0.18000   0.18762   0.25403   0.29480   0.45312
  Beta virt. eigenvalues --    0.64798   0.69542   0.71635   0.77979   0.79279
  Beta virt. eigenvalues --    0.85382   0.86622   0.89610   0.95388   1.02505
  Beta virt. eigenvalues --    1.03352   1.04975   1.13577   1.20299   1.37009
  Beta virt. eigenvalues --    1.50838   1.60195   1.72397   1.92402   1.97489
  Beta virt. eigenvalues --    2.98782
          Condensed to atoms (all electrons):
               1          2          3          4          5          6
     1  C    5.405000   0.267472   0.356641   0.356119   0.356113  -0.045935
     2  C    0.267472   4.895367  -0.032506  -0.043963  -0.043959   0.484228
     3  H    0.356641  -0.032506   0.504122  -0.023320  -0.023321  -0.003251
     4  H    0.356119  -0.043963  -0.023320   0.505717  -0.027997   0.000298
     5  H    0.356113  -0.043959  -0.023321  -0.027997   0.505721   0.000300
     6  C   -0.045935   0.484228  -0.003251   0.000298   0.000300   5.561333
     7  H    0.000283  -0.022267   0.000080  -0.000007  -0.000007   0.362972
     8  O   -0.043575   0.226074   0.001214   0.000579   0.000579  -0.169736
     9  H    0.006526  -0.115016  -0.000165  -0.000142  -0.000142   0.254672
               7          8          9
     1  C    0.000283  -0.043575   0.006526
     2  C   -0.022267   0.226074  -0.115016
     3  H    0.000080   0.001214  -0.000165
     4  H   -0.000007   0.000579  -0.000142
     5  H   -0.000007   0.000579  -0.000142
     6  C    0.362972  -0.169736   0.254672
     7  H    0.452024   0.004091  -0.008844
     8  O    0.004091   8.321018   0.077522
     9  H   -0.008844   0.077522   0.546482
          Atomic-Atomic Spin Densities.
               1          2          3          4          5          6
     1  C   -0.000154   0.008950  -0.002883   0.001333   0.001335  -0.004013
     2  C    0.008950  -0.054334   0.001076   0.000013   0.000012  -0.088070
     3  H   -0.002883   0.001076   0.005224  -0.000255  -0.000256  -0.000365
     4  H    0.001333   0.000013  -0.000255  -0.003881   0.000889  -0.000030
     5  H    0.001335   0.000012  -0.000256   0.000889  -0.003880  -0.000031
     6  C   -0.004013  -0.088070  -0.000365  -0.000030  -0.000031   0.631825
     7  H    0.000344   0.009402  -0.000153   0.000007   0.000007  -0.030032
     8  O    0.000897   0.020307  -0.000034  -0.000214  -0.000214  -0.135610
     9  H   -0.001421  -0.011401   0.000054   0.000005   0.000005   0.082434
               7          8          9
     1  C    0.000344   0.000897  -0.001421
     2  C    0.009402   0.020307  -0.011401
     3  H   -0.000153  -0.000034   0.000054
     4  H    0.000007  -0.000214   0.000005
     5  H    0.000007  -0.000214   0.000005
     6  C   -0.030032  -0.135610   0.082434
     7  H    0.051102   0.003685  -0.006650
     8  O    0.003685   0.830459  -0.056669
     9  H   -0.006650  -0.056669  -0.041274
 Mulliken charges and spin densities:
               1          2
     1  C   -0.658643   0.004388
     2  C    0.384569  -0.114044
     3  H    0.220506   0.002407
     4  H    0.232716  -0.002133
     5  H    0.232714  -0.002132
     6  C   -0.444880   0.456109
     7  H    0.211675   0.027713
     8  O   -0.417764   0.662608
     9  H    0.239107  -0.034917
 Sum of Mulliken charges =   0.00000   1.00000
 Mulliken charges and spin densities with hydrogens summed into heavy atoms:
               1          2
     1  C    0.027293   0.002530
     2  C    0.384569  -0.114044
     6  C   -0.233205   0.483822
     8  O   -0.178657   0.627692
 APT charges:
               1
     1  C    0.005427
     2  C    0.336705
     3  H    0.027775
     4  H    0.025538
     5  H    0.025545
     6  C   -0.382215
     7  H    0.191087
     8  O   -0.233545
     9  H    0.003682
 Sum of APT charges =   0.00000
 APT charges with hydrogens summed into heavy atoms:
               1
     1  C    0.084286
     2  C    0.336705
     6  C   -0.191128
     8  O   -0.229863
 Electronic spatial extent (au):  <R**2>=            271.0223
 Charge=              0.0000 electrons
 Dipole moment (field-independent basis, Debye):
    X=             -1.2408    Y=              1.3145    Z=              0.0000  Tot=              1.8076
 Quadrupole moment (field-independent basis, Debye-Ang):
   XX=            -20.6419   YY=            -25.1863   ZZ=            -25.8440
   XY=              1.6897   XZ=              0.0000   YZ=              0.0000
 Traceless Quadrupole moment (field-independent basis, Debye-Ang):
   XX=              3.2488   YY=             -1.2956   ZZ=             -1.9532
   XY=              1.6897   XZ=              0.0000   YZ=              0.0000
 Octapole moment (field-independent basis, Debye-Ang**2):
  XXX=              2.5792  YYY=              0.6609  ZZZ=              0.0005  XYY=              0.5079
  XXY=              0.2206  XXZ=              0.0000  XZZ=             -2.0053  YZZ=             -3.4252
  YYZ=             -0.0005  XYZ=              0.0000
 Hexadecapole moment (field-independent basis, Debye-Ang**3):
 XXXX=           -200.3978 YYYY=            -98.2840 ZZZZ=            -30.4135 XXXY=             -1.4401
 XXXZ=             -0.0001 YYYX=              3.2342 YYYZ=             -0.0002 ZZZX=             -0.0010
 ZZZY=              0.0000 XXYY=            -46.1708 XXZZ=            -40.5044 YYZZ=            -23.6958
 XXYZ=              0.0000 YYXZ=              0.0009 ZZXY=             -0.6194
 N-N= 1.127831024475D+02 E-N=-6.718292653250D+02  KE= 1.898510951914D+02
  Exact polarizability:  43.530   5.685  35.943   0.000   0.000  17.070
 Approx polarizability:  61.313  15.935  67.957   0.000   0.000  20.948
                          Isotropic Fermi Contact Couplings
        Atom                 a.u.       MegaHertz       Gauss      10(-4) cm-1
     1  C(13)              0.00030       0.34036       0.12145       0.11353
     2  C(13)             -0.02216     -24.91616      -8.89070      -8.31114
     3  H(1)               0.00104       4.66528       1.66469       1.55617
     4  H(1)              -0.00060      -2.66649      -0.95147      -0.88945
     5  H(1)              -0.00060      -2.66250      -0.95005      -0.88812
     6  C(13)              0.16790     188.75170      67.35130      62.96079
     7  H(1)               0.01366      61.03726      21.77961      20.35984
     8  O(17)              0.10919     -66.19034     -23.61836     -22.07872
     9  H(1)              -0.00921     -41.16985     -14.69043     -13.73278
 --------------------------------------------------------
       Center         ----  Spin Dipole Couplings  ----
                      3XX-RR        3YY-RR        3ZZ-RR
 --------------------------------------------------------
     1   Atom        0.008420      0.000641     -0.009060
     2   Atom        0.048675      0.024269     -0.072944
     3   Atom        0.004368     -0.000383     -0.003984
     4   Atom        0.006923     -0.003479     -0.003444
     5   Atom        0.006925     -0.003480     -0.003445
     6   Atom       -0.065488      0.226897     -0.161409
     7   Atom        0.004402      0.027119     -0.031521
     8   Atom        0.465525      0.780130     -1.245656
     9   Atom        0.020482      0.053409     -0.073892
 --------------------------------------------------------
                        XY            XZ            YZ
 --------------------------------------------------------
     1   Atom       -0.006497      0.000000      0.000000
     2   Atom       -0.012980      0.000000      0.000000
     3   Atom       -0.003051      0.000001      0.000000
     4   Atom       -0.002299     -0.004195      0.000782
     5   Atom       -0.002299      0.004196     -0.000781
     6   Atom       -0.248734     -0.000003      0.000006
     7   Atom        0.024813      0.000000      0.000000
     8   Atom        1.795061     -0.000014     -0.000015
     9   Atom        0.018342      0.000001      0.000000
 --------------------------------------------------------


 ---------------------------------------------------------------------------------
              Anisotropic Spin Dipole Couplings in Principal Axis System
 ---------------------------------------------------------------------------------

       Atom             a.u.   MegaHertz   Gauss  10(-4) cm-1        Axes

              Baa    -0.0091    -1.216    -0.434    -0.406  0.0000 -0.0001  1.0000
     1 C(13)  Bbb    -0.0030    -0.408    -0.146    -0.136  0.4931  0.8700  0.0001
              Bcc     0.0121     1.624     0.580     0.542  0.8700 -0.4931  0.0000
 
              Baa    -0.0729    -9.788    -3.493    -3.265  0.0000  0.0000  1.0000
     2 C(13)  Bbb     0.0187     2.504     0.893     0.835  0.3969  0.9179  0.0000
              Bcc     0.0543     7.285     2.599     2.430  0.9179 -0.3969  0.0000
 
              Baa    -0.0040    -2.126    -0.759    -0.709  0.0000  0.0001  1.0000
     3 H(1)   Bbb    -0.0019    -1.000    -0.357    -0.334  0.4391  0.8984  0.0000
              Bcc     0.0059     3.126     1.115     1.043  0.8984 -0.4391  0.0001
 
              Baa    -0.0049    -2.630    -0.939    -0.877  0.3387  0.0298  0.9404
     4 H(1)   Bbb    -0.0040    -2.110    -0.753    -0.704  0.1715  0.9808 -0.0929
              Bcc     0.0089     4.740     1.692     1.581  0.9251 -0.1927 -0.3271
 
              Baa    -0.0049    -2.631    -0.939    -0.878 -0.3386 -0.0301  0.9404
     5 H(1)   Bbb    -0.0040    -2.110    -0.753    -0.704  0.1713  0.9808  0.0931
              Bcc     0.0089     4.741     1.692     1.582  0.9252 -0.1926  0.3270
 
              Baa    -0.2078   -27.886    -9.950    -9.302  0.8680  0.4966  0.0000
     6 C(13)  Bbb    -0.1614   -21.660    -7.729    -7.225  0.0000  0.0000  1.0000
              Bcc     0.3692    49.546    17.679    16.527 -0.4966  0.8680  0.0000
 
              Baa    -0.0315   -16.818    -6.001    -5.610  0.0000  0.0000  1.0000
     7 H(1)   Bbb    -0.0115    -6.151    -2.195    -2.052  0.8415 -0.5403  0.0000
              Bcc     0.0430    22.969     8.196     7.662  0.5403  0.8415  0.0000
 
              Baa    -1.2457    90.135    32.162    30.066  0.0000  0.0000  1.0000
     8 O(17)  Bbb    -1.1791    85.320    30.444    28.460  0.7373 -0.6755  0.0000
              Bcc     2.4248  -175.454   -62.607   -58.525  0.6755  0.7373  0.0000
 
              Baa    -0.0739   -39.425   -14.068   -13.151  0.0000  0.0000  1.0000
     9 H(1)   Bbb     0.0123     6.562     2.342     2.189  0.9132 -0.4074  0.0000
              Bcc     0.0616    32.863    11.726    10.962  0.4074  0.9132  0.0000
 

 ---------------------------------------------------------------------------------

 No NMR shielding tensors so no spin-rotation constants.
 Leave Link  601 at Fri Jan  8 05:42:31 2021, MaxMem=    33554432 cpu:         0.1
 (Enter /apps/applications/gaussian/G09.D01/2/default/g09/l701.exe)
 Compute integral second derivatives.
 ... and contract with generalized density number  0.
 Leave Link  701 at Fri Jan  8 05:42:31 2021, MaxMem=    33554432 cpu:         0.1
 (Enter /apps/applications/gaussian/G09.D01/2/default/g09/l702.exe)
 L702 exits ... SP integral derivatives will be done elsewhere.
 Leave Link  702 at Fri Jan  8 05:42:31 2021, MaxMem=    33554432 cpu:         0.0
 (Enter /apps/applications/gaussian/G09.D01/2/default/g09/l703.exe)
 Compute integral second derivatives, UseDBF=F ICtDFT=           0.
 Integral derivatives from FoFJK, PRISM(SPDF).
 Calling FoFJK, ICntrl=    100127 FMM=F ISym2X=0 I1Cent= 0 IOpClX= 1 NMat=1 NMatS=1 NMatT=0.
 FoFJK:  IHMeth= 1 ICntrl=  100127 DoSepK=F KAlg= 0 I1Cent=   0 FoldK=F
 IRaf=         0 NMat=   1 IRICut=       1 DoRegI=T DoRafI=F ISym2E= 0.
 FoFCou: FMM=F IPFlag=           0 FMFlag=      100000 FMFlg1=         800
         NFxFlg=           0 DoJE=F BraDBF=F KetDBF=F FulRan=T
         wScrn=  0.000000 ICntrl=  100127 IOpCl=  1 I1Cent=           0 NGrid=           0
         NMat0=    1 NMatS0=      1 NMatT0=    0 NMatD0=    1 NMtDS0=    0 NMtDT0=    0
 Symmetry not used in FoFCou.
 Leave Link  703 at Fri Jan  8 05:42:39 2021, MaxMem=    33554432 cpu:         8.8
 (Enter /apps/applications/gaussian/G09.D01/2/default/g09/l716.exe)
 Dipole        =-4.88172571D-01 5.17162969D-01 8.56325524D-06
 Polarizability= 4.35296979D+01 5.68521678D+00 3.59432242D+01
                -1.41214002D-04-5.94156056D-05 1.70704488D+01
 ***** Axes restored to original set *****
 -------------------------------------------------------------------
 Center     Atomic                   Forces (Hartrees/Bohr)
 Number     Number              X              Y              Z
 -------------------------------------------------------------------
      1        6          -0.001421380    0.011439134   -0.019291457
      2        6          -0.021531759   -0.027856941    0.011205093
      3        1           0.002643372   -0.000969034    0.005242739
      4        1          -0.003067950   -0.001211647    0.003835083
      5        1           0.000370419   -0.004838916    0.001432192
      6        6           0.009397401    0.000895159    0.012100972
      7        1          -0.027757746   -0.017409020   -0.013470121
      8        8           0.060998280    0.041506630    0.024699300
      9        1          -0.019630638   -0.001555367   -0.025753801
 -------------------------------------------------------------------
 Cartesian Forces:  Max     0.060998280 RMS     0.019769094
 Force constants in Cartesian coordinates: 
                1             2             3             4             5 
      1  0.532919D+00
      2  0.450128D-02  0.516717D+00
      3  0.217256D-01  0.834653D-03  0.542826D+00
      4 -0.808671D-01 -0.134002D-01  0.120462D-01  0.373122D+00
      5 -0.158009D-01 -0.147225D+00  0.860842D-01  0.251295D+00  0.571685D+00
      6  0.156667D-01  0.895257D-01 -0.187785D+00 -0.363197D-01 -0.301053D+00
      7 -0.167352D+00 -0.317738D-01 -0.121908D+00  0.277154D-02  0.181213D-02
      8 -0.338665D-01 -0.594167D-01 -0.322077D-01  0.197961D-01  0.339432D-02
      9 -0.118751D+00 -0.292135D-01 -0.174477D+00 -0.210357D-01 -0.764823D-02
     10 -0.247597D+00  0.235677D-01  0.877003D-01 -0.267629D-02 -0.438840D-02
     11  0.241641D-01 -0.491553D-01 -0.879646D-02 -0.275972D-01 -0.112484D-02
     12  0.878586D-01 -0.814055D-02 -0.903923D-01  0.299606D-01 -0.762399D-03
     13 -0.483135D-01  0.223457D-01  0.504698D-02 -0.179104D-02 -0.771162D-02
     14  0.215313D-01 -0.266617D+00 -0.666706D-01 -0.341550D-03 -0.273399D-01
     15  0.521791D-02 -0.670168D-01 -0.722203D-01 -0.302338D-02  0.356818D-01
     16  0.693662D-02 -0.128525D-02 -0.230101D-02 -0.190006D+00 -0.218765D+00
     17 -0.883381D-02 -0.111539D-02  0.397177D-02 -0.200629D+00 -0.352016D+00
     18  0.908701D-02  0.147768D-01  0.613836D-03  0.106708D+00  0.137755D+00
     19 -0.368410D-03  0.657328D-03  0.115025D-02  0.660632D-02  0.532787D-02
     20  0.317750D-03 -0.114780D-02 -0.627428D-03 -0.261169D-02  0.923775D-02
     21  0.166529D-02 -0.139817D-03  0.729106D-03  0.708131D-03  0.705558D-02
     22  0.253075D-02  0.903663D-04  0.677871D-03 -0.119412D+00 -0.329570D-01
     23  0.136811D-01  0.383259D-02  0.167642D-01 -0.425133D-01 -0.531068D-01
     24 -0.198260D-01 -0.269164D-02 -0.223534D-01 -0.871379D-01  0.122138D-01
     25  0.211205D-02 -0.470309D-02 -0.413774D-02  0.122524D-01  0.211881D-01
     26 -0.569431D-02  0.412689D-02  0.647325D-03  0.160017D-01 -0.350493D-02
     27 -0.264361D-02  0.206521D-02  0.305958D-02 -0.190631D-02  0.306730D-01
                6             7             8             9            10 
      6  0.535826D+00
      7  0.609073D-02  0.182406D+00
      8  0.180818D-01  0.366397D-01  0.637576D-01
      9 -0.219586D-01  0.133947D+00  0.319004D-01  0.193675D+00
     10  0.346104D-02 -0.213323D-01  0.319031D-02  0.962856D-02  0.274608D+00
     11  0.139365D-01 -0.641636D-02 -0.629953D-03  0.293548D-02 -0.248068D-01
     12 -0.166499D-01 -0.228115D-01  0.305163D-02  0.111090D-01 -0.101504D+00
     13 -0.415609D-03  0.203125D-02 -0.238828D-01 -0.649435D-02 -0.411645D-02
     14 -0.168163D-02  0.439584D-03 -0.528457D-02 -0.207412D-02  0.909456D-03
     15  0.868022D-02  0.374822D-02 -0.232442D-01 -0.759913D-02  0.880043D-03
     16  0.134065D+00  0.255027D-03 -0.382774D-03  0.131598D-02  0.620755D-03
     17  0.163713D+00  0.348501D-03 -0.321564D-03  0.589641D-03  0.131839D-02
     18 -0.108174D+00  0.212733D-03 -0.455741D-03  0.731400D-03 -0.475021D-03
     19 -0.112651D-01 -0.259460D-04 -0.176292D-03 -0.855746D-04 -0.188839D-03
     20 -0.430560D-02 -0.900720D-04  0.881654D-04  0.695153D-04  0.176429D-03
     21 -0.769351D-03 -0.215772D-03 -0.544696D-04 -0.681932D-05  0.233520D-03
     22 -0.101550D+00  0.133463D-02 -0.141262D-02  0.183702D-02  0.566458D-03
     23 -0.146345D-02 -0.899006D-03 -0.175881D-02  0.368882D-02  0.490830D-03
     24 -0.156892D+00  0.106365D-02  0.295301D-02 -0.139421D-02  0.202306D-04
     25 -0.973360D-02 -0.879514D-04  0.948982D-04 -0.361523D-03  0.116237D-03
     26  0.232465D-01 -0.606409D-04  0.171525D-03 -0.247976D-03 -0.457897D-03
     27 -0.522780D-01 -0.126699D-03 -0.246520D-04 -0.795470D-04  0.548880D-04
               11            12            13            14            15 
     11  0.562908D-01
     12  0.684169D-02  0.988874D-01
     13  0.313737D-01  0.100543D-01  0.517236D-01
     14 -0.436863D-02 -0.215033D-02 -0.228509D-01  0.299923D+00
     15 -0.137710D-01 -0.512622D-02 -0.876891D-02  0.719532D-01  0.781420D-01
     16  0.121332D-02 -0.133297D-02  0.229785D-03  0.947123D-03  0.253513D-03
     17 -0.700159D-03  0.131499D-03 -0.120600D-05  0.140690D-02 -0.328911D-03
     18  0.869321D-03 -0.101488D-03  0.667384D-03  0.139655D-03 -0.181799D-02
     19 -0.265361D-04 -0.328489D-03  0.309265D-04  0.168596D-03  0.151459D-03
     20 -0.109735D-03  0.314412D-03 -0.166671D-03 -0.198004D-03 -0.113413D-03
     21  0.109743D-03 -0.305292D-03 -0.211878D-03  0.281105D-03 -0.436778D-03
     22  0.148903D-02 -0.102411D-02  0.664964D-03 -0.176033D-03  0.983670D-03
     23  0.740247D-03 -0.842722D-04  0.798158D-03  0.206331D-02 -0.248859D-02
     24 -0.183648D-02  0.255871D-02 -0.227471D-04 -0.700052D-03  0.113928D-02
     25  0.606716D-03 -0.872876D-03 -0.459503D-03 -0.627609D-03  0.557471D-03
     26 -0.942406D-03  0.798312D-03  0.955794D-04  0.414364D-03 -0.672164D-03
     27 -0.288787D-03  0.201728D-04  0.144848D-03  0.902720D-03 -0.761028D-03
               16            17            18            19            20 
     16  0.518876D+00
     17  0.534422D+00  0.636019D+00
     18 -0.106824D+00 -0.148778D+00  0.101818D+00
     19 -0.243468D+00 -0.244997D+00  0.485058D-02  0.245323D+00
     20 -0.245452D+00 -0.231887D+00  0.155713D-01  0.248538D+00  0.222787D+00
     21  0.553877D-02  0.162257D-01 -0.521019D-02  0.605554D-02 -0.117530D-01
     22 -0.111225D+00 -0.891371D-01 -0.864499D-01 -0.833249D-02  0.184995D-02
     23 -0.117044D+00 -0.192674D-01 -0.734411D-01 -0.496260D-03 -0.645508D-02
     24 -0.443515D-01 -0.334932D-01  0.301465D-01  0.403961D-02 -0.365235D-02
     25  0.177806D-01  0.750920D-02  0.722231D-01  0.423968D-03 -0.256169D-02
     26  0.463469D-01 -0.321183D-01  0.535624D-01 -0.899615D-02  0.768468D-02
     27  0.136357D-01 -0.203182D-02 -0.180059D-01 -0.456827D-02  0.449655D-02
               21            22            23            24            25 
     21  0.556257D-02
     22  0.499785D-03  0.229641D+00
     23 -0.701156D-02  0.116142D+00  0.589892D-01
     24  0.662027D-03  0.179832D+00  0.495178D-01  0.164327D+00
     25 -0.142734D-01  0.423188D-02  0.298397D-01 -0.336174D-01 -0.363696D-01
     26 -0.471332D-02  0.411109D-02  0.149627D-01 -0.223108D-01 -0.513463D-01
     27 -0.225270D-03  0.519343D-02  0.145181D-01 -0.181940D-01 -0.978397D-02
               26            27 
     26  0.920549D-02
     27 -0.503103D-01  0.864640D-01
 Leave Link  716 at Fri Jan  8 05:42:40 2021, MaxMem=    33554432 cpu:         0.0
 (Enter /apps/applications/gaussian/G09.D01/2/default/g09/l103.exe)

 GradGradGradGradGradGradGradGradGradGradGradGradGradGradGradGradGradGrad
 Berny optimization.
 Search for a saddle point.
 Step number   1 out of a maximum of  100
 All quantities printed in internal units (Hartrees-Bohrs-Radians)
 Swapping is turned off.
 Second derivative matrix not updated -- analytic derivatives used.
 ITU=  0
     Eigenvalues ---   -0.16156  -0.04955  -0.00041   0.00851   0.02282
     Eigenvalues ---    0.03420   0.06766   0.07048   0.09775   0.11131
     Eigenvalues ---    0.13177   0.14304   0.19641   0.22577   0.28955
     Eigenvalues ---    0.52287   0.65903   0.68582   0.75645   0.87355
     Eigenvalues ---    1.74296
 Eigenvectors required to have negative eigenvalues:
                          X9        Y9        Z6        Y8        Z8
   1                    0.66696   0.52022  -0.33011  -0.19738   0.18760
                          X6        Z9        Z7        X8        Y7
   1                   -0.17183   0.16995   0.13867  -0.07694  -0.07608
 Eigenvalue     2 is  -4.96D-02 should be greater than     0.000000 Eigenvector:
                          Y7        X7        Z7        Y6        X6
   1                    0.50563  -0.47979   0.33518  -0.25366   0.24069
                          Y9        X9        Y8        X8        Z6
   1                   -0.22780   0.21619   0.18713  -0.17757  -0.16815
 Eigenvalue     3 is  -4.12D-04 should be greater than     0.000000 Eigenvector:
                          X5        Y4        Z4        Y3        X3
   1                    0.53345  -0.39005  -0.33108   0.31748  -0.30111
                          Y7        Z3        X7        X4        Y8
   1                   -0.21259   0.21047   0.20172  -0.16957   0.16699
 RFO step:  Lambda0=6.661988876D-03 Lambda=-4.95525716D-02.
 Linear search not attempted -- option 19 set.
 Maximum step size (   0.300) exceeded in Quadratic search.
    -- Step size scaled by   0.308
 TrRot=  0.000367 -0.001154  0.004507 -0.264966  0.015505  0.247651
 Variable       Old X    -DE/DX   Delta X   Delta X   Delta X     New X
                                 (Linear)    (Quad)   (Total)
    X1        0.38953  -0.00142   0.00000  -0.00589  -0.00543   0.38410
    Y1        1.55095   0.01144   0.00000  -0.00079  -0.00157   1.54938
    Z1       -1.78205  -0.01929   0.00000  -0.00181   0.00304  -1.77901
    X2        0.09733  -0.02153   0.00000  -0.02515  -0.02143   0.07590
    Y2       -0.15314  -0.02786   0.00000   0.00783   0.00385  -0.14928
    Z2        0.37035   0.01121   0.00000   0.02307   0.02589   0.39623
    X3       -1.02647   0.00264   0.00000   0.05587   0.02651  -0.99997
    Y3        1.18976  -0.00097   0.00000  -0.07163  -0.04279   1.14697
    Z3       -3.26314   0.00524   0.00000  -0.03669  -0.01295  -3.27608
    X4        2.27776  -0.00307   0.00000   0.03063   0.01650   2.29426
    Y4        1.35972  -0.00121   0.00000   0.05967   0.02884   1.38856
    Z4       -2.64864   0.00384   0.00000   0.07525   0.05076  -2.59788
    X5        0.20436   0.00037   0.00000  -0.10414  -0.06070   0.14366
    Y5        3.54574  -0.00484   0.00000  -0.00700  -0.00548   3.54026
    Z5       -1.19942   0.00143   0.00000  -0.02189  -0.00529  -1.20471
    X6       -1.25780   0.00940   0.00000  -0.08410  -0.09810  -1.35591
    Y6       -2.04081   0.00090   0.00000   0.06207   0.07910  -1.96171
    Z6        1.27818   0.01210   0.00000   0.03130   0.04830   1.32648
    X7       -2.66414  -0.02776   0.00000   0.03945  -0.00190  -2.66604
    Y7       -3.39836  -0.01741   0.00000  -0.09175  -0.05190  -3.45026
    Z7        1.31303  -0.01347   0.00000  -0.10187  -0.07132   1.24171
    X8        1.68722   0.06100   0.00000   0.09285   0.12775   1.81496
    Y8       -0.03801   0.04151   0.00000  -0.06035  -0.10221  -0.14023
    Z8        2.47246   0.02470   0.00000  -0.01944  -0.04235   2.43011
    X9        0.29222  -0.01963   0.00000  -0.00239   0.01681   0.30903
    Y9       -2.01585  -0.00156   0.00000   0.11212   0.09217  -1.92369
    Z9        3.45923  -0.02575   0.00000   0.01143   0.00393   3.46316
         Item               Value     Threshold  Converged?
 Maximum Force            0.060998     0.000450     NO 
 RMS     Force            0.019769     0.000300     NO 
 Maximum Displacement     0.127746     0.001800     NO 
 RMS     Displacement     0.052586     0.001200     NO 
 Predicted change in Energy=-5.395729D-03
 Lowest energy point so far.  Saving SCF results.
 GradGradGradGradGradGradGradGradGradGradGradGradGradGradGradGradGradGrad

 Leave Link  103 at Fri Jan  8 05:42:40 2021, MaxMem=    33554432 cpu:         0.0
 (Enter /apps/applications/gaussian/G09.D01/2/default/g09/l202.exe)
                          Input orientation:                          
 ---------------------------------------------------------------------
 Center     Atomic      Atomic             Coordinates (Angstroms)
 Number     Number       Type             X           Y           Z
 ---------------------------------------------------------------------
      1          6           0        0.203256    0.819894   -0.941413
      2          6           0        0.040162   -0.078998    0.209678
      3          1           0       -0.529160    0.606953   -1.733628
      4          1           0        1.214071    0.734795   -1.374739
      5          1           0        0.076023    1.873424   -0.637507
      6          6           0       -0.717515   -1.038094    0.701942
      7          1           0       -1.410805   -1.825798    0.657084
      8          8           0        0.960436   -0.074206    1.285958
      9          1           0        0.163531   -1.017970    1.832625
 ---------------------------------------------------------------------
                    Distance matrix (angstroms):
                    1          2          3          4          5
     1  C    0.000000
     2  C    1.469564   0.000000
     3  H    1.099718   2.138011   0.000000
     4  H    1.103068   2.133237   1.784376   0.000000
     5  H    1.103845   2.128605   1.780920   1.770633   0.000000
     6  C    2.645856   1.317673   2.945107   3.344662   3.301630
     7  H    3.487130   2.314474   3.522936   4.192245   4.191762
     8  O    2.516728   1.416089   3.435225   2.792512   2.876659
     9  H    3.327854   1.879055   3.979743   3.803026   3.803863
                    6          7          8          9
     6  C    0.000000
     7  H    1.050306   0.000000
     8  O    2.021305   3.014356   0.000000
     9  H    1.433559   2.124386   1.350776   0.000000
 Stoichiometry    C3H5O(2)
 Framework group  C1[X(C3H5O)]
 Deg. of freedom    21
 Full point group                 C1      NOp   1
 RotChk:  IX=2 Diff= 8.63D-02
 Largest Abelian subgroup         C1      NOp   1
 Largest concise Abelian subgroup C1      NOp   1
                         Standard orientation:                         
 ---------------------------------------------------------------------
 Center     Atomic      Atomic             Coordinates (Angstroms)
 Number     Number       Type             X           Y           Z
 ---------------------------------------------------------------------
      1          6           0       -1.509494    0.115548    0.003363
      2          6           0       -0.040023    0.119381   -0.012640
      3          1           0       -1.920177    1.131649    0.094241
      4          1           0       -1.898380   -0.489362    0.839790
      5          1           0       -1.910701   -0.329724   -0.923588
      6          6           0        1.014184    0.909813   -0.023946
      7          1           0        1.537215    1.806905    0.133560
      8          8           0        0.701431   -1.086792    0.013846
      9          1           0        1.792590   -0.293591   -0.055430
 ---------------------------------------------------------------------
 Rotational constants (GHZ):     14.1758191      7.6790848      5.1441762
 Leave Link  202 at Fri Jan  8 05:42:40 2021, MaxMem=    33554432 cpu:         0.0
 (Enter /apps/applications/gaussian/G09.D01/2/default/g09/l301.exe)
 Standard basis: 3-21G (6D, 7F)
 Ernie: Thresh=  0.10000D-02 Tol=  0.10000D-05 Strict=F.
 There are    46 symmetry adapted cartesian basis functions of A   symmetry.
 There are    46 symmetry adapted basis functions of A   symmetry.
    46 basis functions,    75 primitive gaussians,    46 cartesian basis functions
    16 alpha electrons       15 beta electrons
       nuclear repulsion energy       112.1910935826 Hartrees.
 IExCor=  402 DFT=T Ex+Corr=B3LYP ExCW=0 ScaHFX=  0.200000
 ScaDFX=  0.800000  0.720000  1.000000  0.810000 ScalE2=  1.000000  1.000000
 IRadAn=      0 IRanWt=     -1 IRanGd=            0 ICorTp=0 IEmpDi=  4
 NAtoms=    9 NActive=    9 NUniq=    9 SFac= 1.00D+00 NAtFMM=   60 NAOKFM=F Big=F
 Integral buffers will be    131072 words long.
 Raffenetti 2 integral format.
 Two-electron integral symmetry is turned on.
 Leave Link  301 at Fri Jan  8 05:42:40 2021, MaxMem=    33554432 cpu:         0.0
 (Enter /apps/applications/gaussian/G09.D01/2/default/g09/l302.exe)
 NPDir=0 NMtPBC=     1 NCelOv=     1 NCel=       1 NClECP=     1 NCelD=      1
         NCelK=      1 NCelE2=     1 NClLst=     1 CellRange=     0.0.
 One-electron integrals computed using PRISM.
 NBasis=    46 RedAO= T EigKep=  4.20D-03  NBF=    46
 NBsUse=    46 1.00D-06 EigRej= -1.00D+00 NBFU=    46
 Precomputing XC quadrature grid using
 IXCGrd= 4 IRadAn=           0 IRanWt=          -1 IRanGd=           0 AccXCQ= 0.00D+00.
 Generated NRdTot=       0 NPtTot=           0 NUsed=           0 NTot=          32
 NSgBfM=    46    46    46    46    46 MxSgAt=     9 MxSgA2=     9.
 Leave Link  302 at Fri Jan  8 05:42:40 2021, MaxMem=    33554432 cpu:         0.1
 (Enter /apps/applications/gaussian/G09.D01/2/default/g09/l303.exe)
 DipDrv:  MaxL=1.
 Leave Link  303 at Fri Jan  8 05:42:40 2021, MaxMem=    33554432 cpu:         0.0
 (Enter /apps/applications/gaussian/G09.D01/2/default/g09/l401.exe)
 Initial guess from the checkpoint file:  "/nobackup/chmrsh/Scratch/Gau-49929.chk"
 B after Tr=     0.000000    0.000000    0.000000
         Rot=    0.999970   -0.006799   -0.000252   -0.003727 Ang=  -0.89 deg.
 Guess basis will be translated and rotated to current coordinates.
 JPrj=2 DoOrth=T DoCkMO=T.
 Initial guess <Sx>= 0.0000 <Sy>= 0.0000 <Sz>= 0.5000 <S**2>= 0.7575 S= 0.5037
 Generating alternative initial guess.
 ExpMin= 1.83D-01 ExpMax= 3.22D+02 ExpMxC= 3.22D+02 IAcc=1 IRadAn=         1 AccDes= 0.00D+00
 Harris functional with IExCor=  402 and IRadAn=       1 diagonalized for initial guess.
 HarFok:  IExCor=  402 AccDes= 0.00D+00 IRadAn=         1 IDoV= 1 UseB2=F ITyADJ=14
 ICtDFT=  3500011 ScaDFX=  1.000000  1.000000  1.000000  1.000000
 FoFCou: FMM=F IPFlag=           0 FMFlag=      100000 FMFlg1=           0
         NFxFlg=           0 DoJE=T BraDBF=F KetDBF=T FulRan=T
         wScrn=  0.000000 ICntrl=     500 IOpCl=  0 I1Cent=   200000004 NGrid=           0
         NMat0=    1 NMatS0=      1 NMatT0=    0 NMatD0=    1 NMtDS0=    0 NMtDT0=    0
 Petite list used in FoFCou.
 Harris En= -191.306100431029    
 Leave Link  401 at Fri Jan  8 05:42:40 2021, MaxMem=    33554432 cpu:         0.2
 (Enter /apps/applications/gaussian/G09.D01/2/default/g09/l508.exe)
 Direct SCF.
 Tight linear equation convergence will be used.
 UB3LYP wavefunction.
 Quadratic Convergence SCF Method.
 Line search only if initial step raises energy.
 Integral symmetry usage will be decided dynamically.
 ReadGW:  IGet=1 IStart=         402 Next=         402 LGW=           0.
 Keep R1 and R2 ints in memory in canonical form, NReq=2054798.
 FoFCou: FMM=F IPFlag=           0 FMFlag=           0 FMFlg1=           0
         NFxFlg=           0 DoJE=F BraDBF=F KetDBF=F FulRan=T
         wScrn=  0.000000 ICntrl=     600 IOpCl=  0 I1Cent=           0 NGrid=           0
         NMat0=    1 NMatS0=   1081 NMatT0=    0 NMatD0=    1 NMtDS0=    0 NMtDT0=    0
 Symmetry not used in FoFCou.
 Iteration   1 EE= -191.310113406164                                    Grad=6.423D-02 Max rot=    0.5374 deg.
 Gradient too large for Newton-Raphson -- use scaled steepest descent instead.
 Alpha Gap=     0.495 HL deriv= 1.97D-04
  Beta Gap=     0.478 HL deriv= 1.18D-03
     ILin= 1 X=0.000D+00 Y=-1.913101134062D+02 DE= 0.00D+00 F= -5.97D-03
     ILin= 2 X=3.000D-01 Y=-1.913116492405D+02 DE=-1.54D-03 F= -4.27D-03
     ILin= 3 X=6.000D-01 Y=-1.913126728165D+02 DE=-2.56D-03 F= -2.56D-03
     ILin= 4 X=1.200D+00 Y=-1.913131838625D+02 DE=-3.07D-03 F=  8.54D-04
     Accept linear search using points  3 and  4.
     An  expanding polynomial of degree  4 produced  0.9662
 Iteration   2 EE= -191.313228206975     Delta-E=       -0.003114800811 Grad=2.792D-02 Max rot=    0.2797 deg.
 Gradient too large for Newton-Raphson -- use scaled steepest descent instead.
 Alpha Gap=     0.497 HL deriv= 1.54D-03
  Beta Gap=     0.479 HL deriv= 1.59D-03
     ILin= 1 X=0.000D+00 Y=-1.913132282070D+02 DE= 0.00D+00 F= -1.26D-03
     ILin= 2 X=5.000D-01 Y=-1.913137102609D+02 DE=-4.82D-04 F= -6.63D-04
     ILin= 3 X=1.100D+00 Y=-1.913138917939D+02 DE=-6.64D-04 F=  5.81D-05
     Accept linear search using points  2 and  3.
     An  expanding polynomial of degree  3 produced  0.9476
 Iteration   3 EE= -191.313886695605     Delta-E=       -0.000658488631 Grad=1.938D-02 Max rot=    0.2224 deg.
 Gradient too large for Newton-Raphson -- use scaled steepest descent instead.
 Alpha Gap=     0.496 HL deriv= 3.44D-04
  Beta Gap=     0.479 HL deriv= 1.24D-03
     ILin= 1 X=0.000D+00 Y=-1.913138866956D+02 DE= 0.00D+00 F= -6.51D-04
     ILin= 2 X=1.000D+00 Y=-1.913141785611D+02 DE=-2.92D-04 F=  6.75D-05
     Accept linear search using points  1 and  2.
     An  expanding polynomial of degree  2 produced  0.9062
 Iteration   4 EE= -191.314181725809     Delta-E=       -0.000295030203 Grad=1.593D-02 Max rot=    0.2889 deg.
 Gradient too large for Newton-Raphson -- use scaled steepest descent instead.
 Alpha Gap=     0.496 HL deriv= 3.62D-04
  Beta Gap=     0.479 HL deriv= 6.83D-04
     ILin= 1 X=0.000D+00 Y=-1.913141817258D+02 DE= 0.00D+00 F= -4.39D-04
     ILin= 2 X=9.000D-01 Y=-1.913143359730D+02 DE=-1.54D-04 F=  9.64D-05
     Accept linear search using points  1 and  2.
     An  expanding polynomial of degree  2 produced  0.7096
 Iteration   5 EE= -191.314343547965     Delta-E=       -0.000161822156 Grad=1.184D-02 Max rot=    0.1801 deg.
 Gradient too large for Newton-Raphson -- use scaled steepest descent instead.
 Alpha Gap=     0.497 HL deriv= 2.18D-04
  Beta Gap=     0.480 HL deriv= 6.23D-04
     ILin= 1 X=0.000D+00 Y=-1.913143435480D+02 DE= 0.00D+00 F= -2.47D-04
     ILin= 2 X=8.000D-01 Y=-1.913144435427D+02 DE=-1.00D-04 F= -2.59D-06
     Reject lnstep minimum 8.191D-01 FVal=-1.913144435735D+02 Lims=  0.00D+00  8.00D-01
     ILin= 3 X=1.600D+00 Y=-1.913143474463D+02 DE=-3.90D-06 F=  2.43D-04
     An  expanding polynomial of degree  3 produced  0.8080
     Minimum is close to point  2 DX=  7.95D-03 DF= -9.69D-09 DXR=  9.84D-03 DFR=  9.69D-05 which will be used.
 Iteration   6 EE= -191.314443542702     Delta-E=       -0.000099994737 Grad=1.126D-02 Max rot=    0.1872 deg.
 Gradient too large for Newton-Raphson -- use scaled steepest descent instead.
 Alpha Gap=     0.496 HL deriv= 1.95D-04
  Beta Gap=     0.478 HL deriv= 7.83D-05
     ILin= 1 X=0.000D+00 Y=-1.913144435427D+02 DE= 0.00D+00 F= -2.32D-04
     ILin= 2 X=8.000D-01 Y=-1.913145086445D+02 DE=-6.51D-05 F=  6.92D-05
     Accept linear search using points  1 and  2.
     An  expanding polynomial of degree  2 produced  0.5633
 Iteration   7 EE= -191.314514479527     Delta-E=       -0.000070936825 Grad=8.172D-03 Max rot=    0.1289 deg.
 QCNR:  CnvC1=3.07D-09 CnvC2=3.07D-08
 LinEq1:  Iter=  0 NonCon=     1 RMS=1.27D-03 Max=3.60D-02 NDo=     1
 AX will form     1 AO Fock derivatives at one time.
 LinEq1:  Iter=  1 NonCon=     1 RMS=6.26D-04 Max=9.35D-03 NDo=     1
 LinEq1:  Iter=  2 NonCon=     1 RMS=6.72D-04 Max=9.70D-03 NDo=     1
 LinEq1:  Iter=  3 NonCon=     1 RMS=4.26D-04 Max=4.40D-03 NDo=     1
 LinEq1:  Iter=  4 NonCon=     1 RMS=2.14D-04 Max=1.90D-03 NDo=     1
 LinEq1:  Iter=  5 NonCon=     1 RMS=1.30D-04 Max=1.21D-03 NDo=     1
 LinEq1:  Iter=  6 NonCon=     1 RMS=3.90D-05 Max=4.58D-04 NDo=     1
 LinEq1:  Iter=  7 NonCon=     1 RMS=1.41D-05 Max=2.03D-04 NDo=     1
 LinEq1:  Iter=  8 NonCon=     1 RMS=4.64D-06 Max=5.10D-05 NDo=     1
 LinEq1:  Iter=  9 NonCon=     1 RMS=1.91D-06 Max=1.70D-05 NDo=     1
 LinEq1:  Iter= 10 NonCon=     1 RMS=9.58D-07 Max=6.65D-06 NDo=     1
 LinEq1:  Iter= 11 NonCon=     1 RMS=2.03D-07 Max=3.16D-06 NDo=     1
 LinEq1:  Iter= 12 NonCon=     1 RMS=5.17D-08 Max=6.02D-07 NDo=     1
 LinEq1:  Iter= 13 NonCon=     1 RMS=1.17D-08 Max=9.15D-08 NDo=     1
 LinEq1:  Iter= 14 NonCon=     0 RMS=2.03D-09 Max=1.89D-08 NDo=     1
 Linear equations converged to 3.074D-09 3.074D-08 after    14 iterations.
 Angle between quadratic step and gradient=  56.02 degrees.
     ILin= 1 X=0.000D+00 Y=-1.913145144795D+02 DE= 0.00D+00 F= -1.56D-03
     ILin= 2 X=1.000D+00 Y=-1.913152679959D+02 DE=-7.54D-04 F=  8.13D-05
     Accept linear search using points  1 and  2.
     An  expanding polynomial of degree  2 produced  0.9527
     Minimum is close to point  2 DX= -4.73D-02 DF= -1.92D-06 DXR=  4.96D-02 DFR=  2.55D-03 which will be used.
 Iteration   8 EE= -191.315267995906     Delta-E=       -0.000753516379 Grad=2.628D-03 Max rot=    0.0366 deg.
 QCNR:  CnvC1=3.07D-09 CnvC2=3.07D-08
 LinEq1:  Iter=  0 NonCon=     1 RMS=1.46D-04 Max=2.08D-03 NDo=     1
 LinEq1:  Iter=  1 NonCon=     1 RMS=1.22D-04 Max=1.76D-03 NDo=     1
 LinEq1:  Iter=  2 NonCon=     1 RMS=9.58D-05 Max=1.30D-03 NDo=     1
 LinEq1:  Iter=  3 NonCon=     1 RMS=1.13D-04 Max=1.69D-03 NDo=     1
 LinEq1:  Iter=  4 NonCon=     1 RMS=8.15D-05 Max=9.05D-04 NDo=     1
 LinEq1:  Iter=  5 NonCon=     1 RMS=3.00D-05 Max=2.57D-04 NDo=     1
 LinEq1:  Iter=  6 NonCon=     1 RMS=1.59D-05 Max=1.78D-04 NDo=     1
 LinEq1:  Iter=  7 NonCon=     1 RMS=5.09D-06 Max=7.32D-05 NDo=     1
 LinEq1:  Iter=  8 NonCon=     1 RMS=2.17D-06 Max=1.57D-05 NDo=     1
 LinEq1:  Iter=  9 NonCon=     1 RMS=1.25D-06 Max=9.02D-06 NDo=     1
 LinEq1:  Iter= 10 NonCon=     1 RMS=3.37D-07 Max=2.91D-06 NDo=     1
 LinEq1:  Iter= 11 NonCon=     1 RMS=6.35D-08 Max=6.36D-07 NDo=     1
 LinEq1:  Iter= 12 NonCon=     1 RMS=1.50D-08 Max=1.77D-07 NDo=     1
 LinEq1:  Iter= 13 NonCon=     0 RMS=3.03D-09 Max=2.27D-08 NDo=     1
 Linear equations converged to 3.074D-09 3.074D-08 after    13 iterations.
 Angle between quadratic step and gradient=  67.14 degrees.
     ILin= 1 X=0.000D+00 Y=-1.913152679959D+02 DE= 0.00D+00 F= -1.44D-05
     ILin= 2 X=1.000D+00 Y=-1.913152752273D+02 DE=-7.23D-06 F= -5.02D-08
     Reject lnstep minimum 1.004D+00 FVal=-1.913152752274D+02 Lims=  0.00D+00  1.00D+00
     ILin= 3 X=2.000D+00 Y=-1.913152681299D+02 DE=-1.34D-07 F=  1.42D-05
     An  expanding polynomial of degree  3 produced  1.0047
     Minimum is close to point  2 DX=  4.68D-03 DF= -1.57D-10 DXR=  4.66D-03 DFR=  2.17D-05 which will be used.
 Iteration   9 EE= -191.315275227265     Delta-E=       -0.000007231359 Grad=5.917D-06 Max rot=    0.0002 deg.
 QCNR:  CnvC1=5.92D-11 CnvC2=5.92D-10
 LinEq1:  Iter=  0 NonCon=     1 RMS=8.40D-07 Max=2.35D-05 NDo=     1
 LinEq1:  Iter=  1 NonCon=     1 RMS=3.84D-07 Max=4.94D-06 NDo=     1
 LinEq1:  Iter=  2 NonCon=     1 RMS=3.53D-07 Max=6.51D-06 NDo=     1
 LinEq1:  Iter=  3 NonCon=     1 RMS=3.08D-07 Max=4.98D-06 NDo=     1
 LinEq1:  Iter=  4 NonCon=     1 RMS=2.43D-07 Max=2.76D-06 NDo=     1
 LinEq1:  Iter=  5 NonCon=     1 RMS=8.17D-08 Max=7.99D-07 NDo=     1
 LinEq1:  Iter=  6 NonCon=     1 RMS=4.42D-08 Max=4.14D-07 NDo=     1
 LinEq1:  Iter=  7 NonCon=     1 RMS=1.35D-08 Max=1.95D-07 NDo=     1
 LinEq1:  Iter=  8 NonCon=     1 RMS=5.16D-09 Max=5.67D-08 NDo=     1
 LinEq1:  Iter=  9 NonCon=     1 RMS=3.18D-09 Max=2.41D-08 NDo=     1
 LinEq1:  Iter= 10 NonCon=     1 RMS=1.06D-09 Max=1.13D-08 NDo=     1
 LinEq1:  Iter= 11 NonCon=     1 RMS=1.98D-10 Max=1.69D-09 NDo=     1
 LinEq1:  Iter= 12 NonCon=     0 RMS=4.78D-11 Max=3.49D-10 NDo=     1
 Linear equations converged to 5.917D-11 5.917D-10 after    12 iterations.
 Angle between quadratic step and gradient=  60.14 degrees.
     ILin= 1 X=0.000D+00 Y=-1.913152752273D+02 DE= 0.00D+00 F= -5.76D-10
     ILin= 2 X=1.000D+00 Y=-1.913152752276D+02 DE=-2.88D-10
 Iteration  10 EE= -191.315275227553     Delta-E=       -0.000000000288 Grad=1.249D-09 Max rot=    0.0000 deg.
 Rotation gradient small -- convergence achieved.
 SCF Done:  E(UB3LYP) =  -191.315275228     a.u. after   10 cycles
            Convg  =    0.1249D-08                    59 Fock formations.
              S**2 =  0.7589                  -V/T =  2.0081
 <Sx>= 0.0000 <Sy>= 0.0000 <Sz>= 0.5000 <S**2>= 0.7589 S= 0.5044
 <L.S>= 0.000000000000E+00
 Annihilation of the first spin contaminant:
 S**2 before annihilation     0.7589,   after     0.7500
 Leave Link  508 at Fri Jan  8 05:43:22 2021, MaxMem=    33554432 cpu:        41.5
 (Enter /apps/applications/gaussian/G09.D01/2/default/g09/l801.exe)
 DoSCS=F DFT=T ScalE2(SS,OS)=  1.000000  1.000000
 Range of M.O.s used for correlation:     1    46
 NBasis=    46 NAE=    16 NBE=    15 NFC=     0 NFV=     0
 NROrb=     46 NOA=    16 NOB=    15 NVA=    30 NVB=    31
 Leave Link  801 at Fri Jan  8 05:43:22 2021, MaxMem=    33554432 cpu:         0.0
 (Enter /apps/applications/gaussian/G09.D01/2/default/g09/l1101.exe)
 Using compressed storage, NAtomX=     9.
 Will process     10 centers per pass.
 Leave Link 1101 at Fri Jan  8 05:43:22 2021, MaxMem=    33554432 cpu:         0.1
 (Enter /apps/applications/gaussian/G09.D01/2/default/g09/l1102.exe)
 Symmetrizing basis deriv contribution to polar:
 IMax=3 JMax=2 DiffMx= 0.00D+00
 Leave Link 1102 at Fri Jan  8 05:43:22 2021, MaxMem=    33554432 cpu:         0.0
 (Enter /apps/applications/gaussian/G09.D01/2/default/g09/l1110.exe)
 Forming Gx(P) for the SCF density, NAtomX=     9.
 Integral derivatives from FoFJK, PRISM(SPDF).
 Do as many integral derivatives as possible in FoFJK.
 G2DrvN: MDV=      33554256.
 G2DrvN: will do    10 centers at a time, making    1 passes.
 Calling FoFCou, ICntrl=  3107 FMM=F I1Cent=   0 AccDes= 0.00D+00.
 FoFJK:  IHMeth= 1 ICntrl=    3107 DoSepK=F KAlg= 0 I1Cent=   0 FoldK=F
 IRaf=         0 NMat=   1 IRICut=       1 DoRegI=T DoRafI=F ISym2E= 0.
 FoFCou: FMM=F IPFlag=           0 FMFlag=      100000 FMFlg1=           0
         NFxFlg=           0 DoJE=F BraDBF=F KetDBF=F FulRan=T
         wScrn=  0.000000 ICntrl=    3107 IOpCl=  1 I1Cent=           0 NGrid=           0
         NMat0=    1 NMatS0=      1 NMatT0=    0 NMatD0=    1 NMtDS0=    0 NMtDT0=    0
 Symmetry not used in FoFCou.
 End of G2Drv F.D. properties file   721 does not exist.
 End of G2Drv F.D. properties file   722 does not exist.
 End of G2Drv F.D. properties file   788 does not exist.
 Leave Link 1110 at Fri Jan  8 05:43:32 2021, MaxMem=    33554432 cpu:        10.2
 (Enter /apps/applications/gaussian/G09.D01/2/default/g09/l1002.exe)
 Minotr:  UHF open shell wavefunction.
          IDoAtm=111111111
          Direct CPHF calculation.
          Differentiating once with respect to electric field.
                with respect to dipole field.
          Differentiating once with respect to nuclear coordinates.
          Requested convergence is 1.0D-08 RMS, and 1.0D-07 maximum.
          Secondary convergence is 1.0D-12 RMS, and 1.0D-12 maximum.
          NewPWx=T KeepS1=F KeepF1=F KeepIn=T MapXYZ=F SortEE=F KeepMc=T.
          MDV=      33554246 using IRadAn=       2.
 Generate precomputed XC quadrature information.
 Keep R1 and R2 ints in memory in canonical form, NReq=2035813.
 FoFCou: FMM=F IPFlag=           0 FMFlag=           0 FMFlg1=           0
         NFxFlg=           0 DoJE=F BraDBF=F KetDBF=F FulRan=T
         wScrn=  0.000000 ICntrl=     600 IOpCl=  0 I1Cent=           0 NGrid=           0
         NMat0=    1 NMatS0=   1081 NMatT0=    0 NMatD0=    1 NMtDS0=    0 NMtDT0=    0
 Symmetry not used in FoFCou.
          Solving linear equations simultaneously, MaxMat=       0.
          There are    30 degrees of freedom in the 1st order CPHF.  IDoFFX=6 NUNeed=     3.
     27 vectors produced by pass  0 Test12= 3.15D-15 3.33D-09 XBig12= 8.44D+01 3.45D+00.
 AX will form    27 AO Fock derivatives at one time.
     27 vectors produced by pass  1 Test12= 3.15D-15 3.33D-09 XBig12= 1.90D+01 1.12D+00.
     27 vectors produced by pass  2 Test12= 3.15D-15 3.33D-09 XBig12= 2.68D-01 1.03D-01.
     27 vectors produced by pass  3 Test12= 3.15D-15 3.33D-09 XBig12= 1.01D-03 7.25D-03.
     27 vectors produced by pass  4 Test12= 3.15D-15 3.33D-09 XBig12= 4.60D-06 3.68D-04.
     25 vectors produced by pass  5 Test12= 3.15D-15 3.33D-09 XBig12= 1.15D-08 1.42D-05.
      6 vectors produced by pass  6 Test12= 3.15D-15 3.33D-09 XBig12= 1.87D-11 5.35D-07.
      2 vectors produced by pass  7 Test12= 3.15D-15 3.33D-09 XBig12= 3.81D-14 2.72D-08.
 InvSVY:  IOpt=1 It=  1 EMax= 1.07D-14
 Solved reduced A of dimension   168 with    30 vectors.
 FullF1:  Do perturbations    1 to     3.
 Isotropic polarizability for W=    0.000000       32.26 Bohr**3.
 End of Minotr F.D. properties file   721 does not exist.
 End of Minotr F.D. properties file   722 does not exist.
 End of Minotr F.D. properties file   788 does not exist.
 Leave Link 1002 at Fri Jan  8 05:43:42 2021, MaxMem=    33554432 cpu:         9.8
 (Enter /apps/applications/gaussian/G09.D01/2/default/g09/l701.exe)
 Compute integral second derivatives.
 ... and contract with generalized density number  0.
 Leave Link  701 at Fri Jan  8 05:43:42 2021, MaxMem=    33554432 cpu:         0.1
 (Enter /apps/applications/gaussian/G09.D01/2/default/g09/l702.exe)
 L702 exits ... SP integral derivatives will be done elsewhere.
 Leave Link  702 at Fri Jan  8 05:43:42 2021, MaxMem=    33554432 cpu:         0.0
 (Enter /apps/applications/gaussian/G09.D01/2/default/g09/l703.exe)
 Compute integral second derivatives, UseDBF=F ICtDFT=           0.
 Integral derivatives from FoFJK, PRISM(SPDF).
 Calling FoFJK, ICntrl=    100127 FMM=F ISym2X=0 I1Cent= 0 IOpClX= 1 NMat=1 NMatS=1 NMatT=0.
 FoFJK:  IHMeth= 1 ICntrl=  100127 DoSepK=F KAlg= 0 I1Cent=   0 FoldK=F
 IRaf=         0 NMat=   1 IRICut=       1 DoRegI=T DoRafI=F ISym2E= 0.
 FoFCou: FMM=F IPFlag=           0 FMFlag=      100000 FMFlg1=         800
         NFxFlg=           0 DoJE=F BraDBF=F KetDBF=F FulRan=T
         wScrn=  0.000000 ICntrl=  100127 IOpCl=  1 I1Cent=           0 NGrid=           0
         NMat0=    1 NMatS0=      1 NMatT0=    0 NMatD0=    1 NMtDS0=    0 NMtDT0=    0
 Symmetry not used in FoFCou.
 Leave Link  703 at Fri Jan  8 05:43:51 2021, MaxMem=    33554432 cpu:         8.8
 (Enter /apps/applications/gaussian/G09.D01/2/default/g09/l716.exe)
 Dipole        =-4.82462867D-01 5.42316160D-01 7.88106850D-02
 Polarizability= 4.29697422D+01 5.61762567D+00 3.67678667D+01
                -5.01450219D-01 2.16894391D-01 1.70349498D+01
 ***** Axes restored to original set *****
 -------------------------------------------------------------------
 Center     Atomic                   Forces (Hartrees/Bohr)
 Number     Number              X              Y              Z
 -------------------------------------------------------------------
      1        6          -0.001713866    0.008689772   -0.013723423
      2        6          -0.010084404   -0.016965470    0.010859156
      3        1           0.002210993   -0.000614036    0.004467267
      4        1          -0.003136244   -0.001619955    0.003775229
      5        1           0.000608790   -0.004344495    0.000653170
      6        6          -0.001680305   -0.004882826    0.015425220
      7        1          -0.015620885   -0.009522783   -0.014192517
      8        8           0.045436889    0.027573991    0.011963054
      9        1          -0.016020967    0.001685803   -0.019227156
 -------------------------------------------------------------------
 Cartesian Forces:  Max     0.045436889 RMS     0.013935972
 Force constants in Cartesian coordinates: 
                1             2             3             4             5 
      1  0.540578D+00
      2  0.384291D-02  0.510155D+00
      3  0.227607D-01  0.101780D-01  0.533329D+00
      4 -0.817300D-01 -0.111795D-01  0.124180D-01  0.375913D+00
      5 -0.142236D-01 -0.140809D+00  0.803969D-01  0.237776D+00  0.547098D+00
      6  0.173413D-01  0.820840D-01 -0.178693D+00 -0.731333D-01 -0.309059D+00
      7 -0.163733D+00 -0.348511D-01 -0.121721D+00  0.264959D-02  0.211094D-02
      8 -0.367826D-01 -0.607927D-01 -0.367748D-01  0.188256D-01  0.317952D-02
      9 -0.119076D+00 -0.339018D-01 -0.179165D+00 -0.202832D-01 -0.740311D-02
     10 -0.255055D+00  0.204244D-01  0.851469D-01 -0.306985D-02 -0.384572D-02
     11  0.210209D-01 -0.484136D-01 -0.701424D-02 -0.270568D-01 -0.134473D-02
     12  0.851817D-01 -0.651082D-02 -0.868074D-01  0.292140D-01 -0.142919D-02
     13 -0.495674D-01  0.283617D-01  0.678221D-02 -0.140021D-02 -0.773930D-02
     14  0.276572D-01 -0.266180D+00 -0.663365D-01  0.313394D-03 -0.271267D-01
     15  0.694846D-02 -0.661698D-01 -0.711072D-01 -0.346917D-02  0.359517D-01
     16  0.318608D-02  0.405990D-03 -0.192274D-02 -0.176021D+00 -0.220229D+00
     17 -0.108125D-01 -0.229902D-03  0.374582D-02 -0.210497D+00 -0.332611D+00
     18  0.934421D-02  0.164457D-01  0.251676D-02  0.923728D-01  0.109840D+00
     19  0.320046D-03  0.595209D-03  0.117052D-02 -0.769066D-02 -0.773011D-04
     20 -0.725134D-03 -0.654401D-03 -0.528539D-03  0.137851D-01  0.117093D-01
     21  0.101903D-02 -0.508910D-03  0.402072D-04  0.161876D-01  0.197723D-01
     22  0.424037D-02 -0.166919D-02  0.989288D-03 -0.135892D+00 -0.285309D-01
     23  0.136022D-01  0.404718D-02  0.159094D-01 -0.279374D-01 -0.576230D-01
     24 -0.206167D-01 -0.376508D-02 -0.227969D-01 -0.491104D-01  0.353640D-01
     25  0.176150D-02 -0.593043D-02 -0.562414D-02  0.272409D-01  0.347594D-01
     26 -0.357928D-02  0.287730D-02  0.423853D-03  0.597063D-02 -0.247212D-02
     27 -0.290245D-02  0.214864D-02  0.268286D-02 -0.419635D-02  0.365669D-01
                6             7             8             9            10 
      6  0.498775D+00
      7  0.566847D-02  0.177553D+00
      8  0.178768D-01  0.397591D-01  0.659609D-01
      9 -0.213167D-01  0.134195D+00  0.367304D-01  0.198298D+00
     10  0.301571D-02 -0.204423D-01  0.278632D-02  0.899688D-02  0.282225D+00
     11  0.129226D-01 -0.702237D-02 -0.721144D-03  0.316467D-02 -0.215983D-01
     12 -0.158177D-01 -0.233472D-01  0.280397D-02  0.109496D-01 -0.981911D-01
     13 -0.511232D-03  0.251949D-02 -0.233954D-01 -0.623368D-02 -0.495064D-02
     14 -0.804895D-03  0.691493D-03 -0.603270D-02 -0.227243D-02  0.871877D-03
     15  0.790304D-02  0.437141D-02 -0.237015D-01 -0.755656D-02  0.111031D-02
     16  0.150908D+00  0.332442D-03 -0.805542D-04  0.830471D-03  0.598772D-03
     17  0.173898D+00  0.311759D-03  0.522379D-05  0.517073D-03  0.156963D-02
     18 -0.128888D+00  0.384361D-03 -0.102211D-02  0.114035D-02 -0.307607D-03
     19 -0.120301D-01 -0.201341D-04 -0.215239D-03  0.357165D-04 -0.614456D-04
     20 -0.495763D-02 -0.421337D-04  0.108746D-03 -0.400576D-04  0.115547D-04
     21  0.618898D-02 -0.225574D-03  0.156155D-03 -0.189123D-03  0.169012D-03
     22 -0.875149D-01  0.131909D-02 -0.141488D-02  0.222532D-02  0.713508D-03
     23  0.374132D-02 -0.797973D-03 -0.192647D-02  0.333156D-02  0.221137D-03
     24 -0.117798D+00  0.844537D-03  0.383632D-02 -0.199833D-02 -0.759373D-04
     25 -0.374379D-02 -0.177883D-03  0.517728D-03 -0.689876D-03  0.421035D-04
     26  0.242990D-01 -0.159666D-03  0.218619D-03 -0.126309D-03 -0.440916D-03
     27 -0.503540D-01 -0.169918D-03  0.946369D-04 -0.162361D-03  0.135822D-03
               11            12            13            14            15 
     11  0.551704D-01
[...]
 Thermal correction to Gibbs Free Energy=         0.037585
 Sum of electronic and zero-point Energies=           -191.263262
 Sum of electronic and thermal Energies=              -191.258428
 Sum of electronic and thermal Enthalpies=            -191.257484
 Sum of electronic and thermal Free Energies=         -191.291061
 
                     E (Thermal)             CV                S
                      KCal/Mol        Cal/Mol-Kelvin    Cal/Mol-Kelvin
 Total                   44.062             15.599             70.669
 Electronic               0.000              0.000              1.377
 Translational            0.889              2.981             38.044
 Rotational               0.889              2.981             23.935
 Vibrational             42.285              9.637              7.311
 Vibration     1          0.602              1.955              3.617
 Vibration     2          0.734              1.556              1.124
 Vibration     3          0.797              1.390              0.836
 Vibration     4          0.815              1.346              0.775
                       Q            Log10(Q)             Ln(Q)
 Total Bot       0.515569D-17        -17.287713        -39.806430
 Total V=0       0.612012D+13         12.786760         29.442602
 Vib (Bot)       0.400947D-29        -29.396913        -67.688894
 Vib (Bot)    1  0.223371D+01          0.349026          0.803663
 Vib (Bot)    2  0.510098D+00         -0.292346         -0.673153
 Vib (Bot)    3  0.396676D+00         -0.401564         -0.924635
 Vib (Bot)    4  0.373244D+00         -0.428007         -0.985523
 Vib (V=0)       0.475948D+01          0.677559          1.560138
 Vib (V=0)    1  0.278898D+01          0.445446          1.025678
 Vib (V=0)    2  0.121428D+01          0.084320          0.194154
 Vib (V=0)    3  0.113824D+01          0.056234          0.129484
 Vib (V=0)    4  0.112395D+01          0.050746          0.116847
 Electronic      0.200000D+01          0.301030          0.693147
 Translational   0.169300D+08          7.228656         16.644596
 Rotational      0.379764D+05          4.579514         10.544721
 
                                                    Gaussian input prepared by AS
 E
                                                             IR Spectrum
 
     33 3 3                                        2                  11  1 1      1   11   1                                        
     11 1 0                                        0                  55  4 4      2   00   0 9      7   6        44  3              
     55 0 5                                        3                  53  6 1      3   99   1 6      9   7        53  5          9   
     94 4 7                                        4                  59  2 4      8   86   4 1      5   6        77  9          2   
 
     XX X X                                        X                  XX  X X      X   XX   X X      X   X        XX  X          X   
     X                                             X                   X    X      X   XX   X X      X   X        XX                 
                                                   X                        X          XX     X      X            XX                 
                                                                            X           X     X      X            XX                 
                                                                            X           X     X      X                               
                                                                            X           X     X      X                               
                                                                            X                 X      X                               
                                                                            X                        X                               
                                                                            X                        X                               
                                                                            X                        X                               
                                                                            X                        X                               
                                                                            X                        X                               
                                                                            X                        X                               
                                                                            X                        X                               
                                                                                                     X                               
                                                                                                     X                               
                                                                                                     X                               
                                                                                                     X                               
                                                                                                     X                               
                                                                                                     X                               
 
 ***** Axes restored to original set *****
 -------------------------------------------------------------------
 Center     Atomic                   Forces (Hartrees/Bohr)
 Number     Number              X              Y              Z
 -------------------------------------------------------------------
      1        6          -0.000001892   -0.000002171   -0.000004496
      2        6           0.000000114    0.000000564    0.000000528
      3        1           0.000001370   -0.000002594    0.000000668
      4        1          -0.000003881   -0.000000123    0.000000416
      5        1          -0.000002545   -0.000003889   -0.000003781
      6        6           0.000003879   -0.000001111    0.000003460
      7        1           0.000002828   -0.000002092    0.000002390
      8        8          -0.000000941    0.000008646   -0.000000187
      9        1           0.000001067    0.000002770    0.000001001
 -------------------------------------------------------------------
 Cartesian Forces:  Max     0.000008646 RMS     0.000002862
 Force constants in Cartesian coordinates: 
                1             2             3             4             5 
      1  0.563762D+00
      2  0.689096D-02  0.517612D+00
      3  0.334339D-01  0.399320D-01  0.509506D+00
      4 -0.812387D-01 -0.349717D-02  0.819082D-02  0.287493D+00
      5 -0.109615D-01 -0.123240D+00  0.625452D-01  0.125533D+00  0.414593D+00
      6  0.101514D-01  0.632311D-01 -0.163737D+00  0.197141D-02 -0.213521D+00
      7 -0.202192D+00 -0.419085D-01 -0.129005D+00  0.110329D-02  0.668536D-03
      8 -0.442230D-01 -0.615965D-01 -0.360780D-01  0.186779D-01  0.263389D-02
      9 -0.126267D+00 -0.333007D-01 -0.154993D+00 -0.226205D-01 -0.806920D-02
     10 -0.244694D+00  0.387382D-01  0.101393D+00 -0.163733D-02 -0.329733D-02
     11  0.375483D-01 -0.500733D-01 -0.183966D-01 -0.243576D-01 -0.131995D-02
     12  0.103138D+00 -0.191478D-01 -0.102400D+00  0.290602D-01 -0.279948D-02
     13 -0.455952D-01  0.901297D-02 -0.105111D-02 -0.351892D-02 -0.566189D-02
     14  0.894977D-02 -0.288358D+00 -0.662604D-01 -0.145436D-03 -0.243772D-01
     15 -0.878133D-03 -0.661411D-01 -0.667589D-01 -0.212205D-02  0.362339D-01
     16  0.231517D-02  0.123477D-02 -0.756398D-03 -0.130778D+00 -0.150764D+00
     17 -0.935966D-02  0.171672D-02  0.201941D-02 -0.622670D-01 -0.193379D+00
     18  0.340692D-02  0.237141D-01  0.809118D-02 -0.317409D-01 -0.589773D-02
     19 -0.677003D-03  0.197662D-02  0.406542D-03  0.404038D-02 -0.346327D-03
     20 -0.118858D-02  0.185869D-04  0.846312D-03 -0.207325D-01 -0.138425D-01
     21  0.149791D-02 -0.189300D-02 -0.332608D-03  0.326267D-01  0.297999D-01
     22  0.175815D-02 -0.239237D-02 -0.858893D-03 -0.146552D+00 -0.103411D-01
     23  0.122720D-01  0.417791D-02  0.199871D-01 -0.815917D-01 -0.973876D-01
     24 -0.210417D-01 -0.964083D-02 -0.310706D-01 -0.211677D-01  0.518197D-01
     25  0.656198D-02 -0.100555D-01 -0.117529D-01  0.710885D-01  0.551703D-01
     26  0.717178D-04 -0.257623D-03 -0.459497D-02  0.483804D-01  0.363197D-01
     27 -0.344192D-02  0.324645D-02  0.169501D-02  0.580210D-02  0.498885D-01
                6             7             8             9            10 
      6  0.529534D+00
      7  0.407181D-02  0.218471D+00
      8  0.138684D-01  0.474929D-01  0.655717D-01
      9 -0.195249D-01  0.140826D+00  0.346470D-01  0.171847D+00
     10  0.279718D-02 -0.212323D-01  0.483676D-02  0.124805D-01  0.269045D+00
     11  0.140026D-01 -0.667195D-02 -0.236660D-03  0.398911D-02 -0.413554D-01
     12 -0.189419D-01 -0.198331D-01  0.421745D-02  0.118150D-01 -0.116576D+00
     13  0.336984D-03  0.119454D-02 -0.265144D-01 -0.563326D-02 -0.188846D-02
     14 -0.884015D-03  0.429810D-03 -0.525658D-02 -0.157306D-02  0.239813D-03
     15  0.628562D-02  0.259813D-02 -0.211874D-01 -0.590883D-02 -0.296531D-04
     16  0.778984D-01  0.574832D-03 -0.284984D-04  0.670836D-03  0.100100D-02
     17  0.113497D+00  0.822487D-03  0.261409D-03  0.981580D-04  0.642985D-03
     18 -0.119020D+00  0.204415D-03 -0.796091D-03  0.567330D-03  0.938886D-03
     19 -0.103884D-01  0.392965D-03 -0.257604D-03  0.255729D-03 -0.172412D-03
     20 -0.239504D-01  0.172001D-04 -0.246820D-03  0.367157D-03  0.205363D-03
     21  0.571863D-03 -0.891291D-04 -0.189656D-05  0.201370D-03 -0.875212D-04
     22 -0.934769D-01  0.187328D-02 -0.101816D-02  0.124219D-02  0.222897D-03
     23 -0.229113D-01 -0.770285D-03 -0.211067D-02  0.428871D-02  0.111277D-02
     24 -0.146117D+00  0.126051D-02  0.507648D-02 -0.367700D-02 -0.102239D-02
     25  0.663808D-02 -0.184783D-03  0.103402D-02 -0.954685D-03 -0.644459D-03
     26  0.566673D-01 -0.801760D-04  0.980184D-03 -0.447097D-03 -0.112322D-02
     27 -0.690509D-01 -0.340097D-04  0.254057D-03 -0.327195D-03  0.106187D-03
               11            12            13            14            15 
     11  0.574525D-01
     12  0.178961D-01  0.111951D+00
     13  0.308663D-01  0.796024D-02  0.480826D-01
     14 -0.585364D-02 -0.198397D-02 -0.883962D-02  0.320734D+00
     15 -0.162615D-01 -0.477813D-02 -0.251909D-02  0.698112D-01  0.733627D-01
     16  0.673648D-03 -0.228421D-03  0.107580D-02  0.136952D-02  0.290862D-03
     17 -0.199384D-03  0.745778D-03  0.986816D-03  0.945315D-03 -0.854424D-03
     18 -0.202855D-02  0.555159D-03  0.709403D-03  0.238764D-02 -0.445957D-02
     19 -0.140301D-03 -0.109471D-03  0.327940D-03  0.255922D-03 -0.435778D-03
     20 -0.518671D-03  0.514740D-03 -0.128160D-04  0.391251D-04  0.188597D-03
     21  0.590294D-03 -0.455927D-03 -0.547263D-04 -0.199990D-03  0.344512D-03
     22  0.647153D-03 -0.148309D-02  0.903338D-03 -0.338151D-03  0.107961D-02
     23 -0.202085D-03  0.578459D-03  0.478286D-03  0.259454D-02 -0.167369D-02
     24  0.603843D-03  0.165085D-02 -0.761160D-04 -0.200940D-02  0.263260D-02
     25  0.278988D-02 -0.192897D-02 -0.581680D-03 -0.192164D-02  0.201611D-02
     26  0.951227D-03 -0.211923D-04 -0.315652D-03 -0.467588D-03 -0.115617D-03
     27 -0.395244D-03  0.603690D-03  0.327678D-03  0.712054D-03 -0.719957D-03
               16            17            18            19            20 
     16  0.346184D+00
     17  0.296483D+00  0.333437D+00
     18  0.637541D-01  0.999581D-01  0.144242D+00
     19 -0.129684D+00 -0.122456D+00 -0.782615D-01  0.131270D+00
     20 -0.106612D+00 -0.122401D+00 -0.100749D+00  0.124970D+00  0.138305D+00
     21 -0.120357D+00 -0.130327D+00 -0.110578D+00  0.995772D-01  0.105670D+00
     22 -0.126349D+00 -0.822898D-01 -0.479901D-01  0.219696D-02 -0.534714D-02
     23 -0.832564D-01  0.231836D-01 -0.825676D-01  0.168443D-02 -0.678087D-02
     24 -0.225242D-01 -0.621314D-01  0.931077D-01 -0.901025D-02  0.102341D-01
     25  0.356611D-01 -0.225622D-01  0.889788D-01 -0.769423D-02  0.870057D-02
     26  0.409006D-01 -0.435642D-01  0.659796D-01 -0.568682D-02  0.542670D-02
     27  0.125128D-02 -0.230057D-01 -0.125060D-01 -0.203410D-02  0.687853D-02
               21            22            23            24            25 
     21  0.116563D+00
     22 -0.136935D-01  0.278992D+00
     23  0.155779D-02  0.895279D-01  0.677850D-01
     24 -0.643810D-02  0.138956D+00  0.627304D-01  0.138816D+00
     25  0.579586D-03 -0.130453D-01  0.605430D-01 -0.653741D-01 -0.911611D-01
     26 -0.519639D-02  0.115517D-01  0.874025D-02 -0.566829D-01 -0.936985D-01
     27  0.124361D-03  0.162246D-01  0.180101D-01 -0.489045D-01 -0.182018D-01
               26            27 
     26 -0.812859D-02
     27 -0.555888D-01  0.129086D+00
 Leave Link  716 at Fri Jan  8 05:52:00 2021, MaxMem=    33554432 cpu:         0.0
 (Enter /apps/applications/gaussian/G09.D01/2/default/g09/l9999.exe)
 1\1\GINC-DC1S1B1B\Freq\UB3LYP\3-21G\C3H5O1(2)\CHMRSH\08-Jan-2021\0\\#P
  b3lyp/3-21G scf=qc opt(calcall, ts, noeigentest, cartesian,maxcycle=1
 00)\\Gaussian input prepared by ASE\\0,2\C,0.1689774619,0.7579481461,-
 0.8915741785\C,0.0810406716,-0.0988789828,0.3250045467\H,-0.6477146994
 ,0.5400945636,-1.5820882803\H,1.126756803,0.5837312002,-1.3971568799\H
 ,0.1337975713,1.8178698409,-0.6142415502\C,-0.7709806483,-1.0798734496
 ,0.7824174519\H,-1.3992061622,-1.7228508825,0.1668905762\O,1.019186640
 2,0.013286078,1.3209729562\H,0.2881423619,-0.811326514,1.8897753577\\V
 ersion=ES64L-G09RevD.01\State=2-A\HF=-191.3286455\S2=0.760178\S2-1=0.\
 S2A=0.750022\RMSD=0.000e+00\RMSF=2.862e-06\ZeroPoint=0.065384\Thermal=
 0.0702174\Dipole=-0.1681337,0.152248,-0.8512079\DipoleDeriv=0.0543715,
 -0.032507,0.1138,-0.0479125,-0.0671754,0.1544314,0.0007697,0.0693318,-
 0.0894327,0.2453101,0.4241084,-0.356082,0.1153436,0.6076065,-0.4050013
 ,-0.0312277,-0.1836954,0.2759368,-0.0002649,-0.0170567,-0.0982077,-0.0
 513309,0.0675222,-0.0176432,-0.0460372,0.0205281,0.0180672,-0.0239316,
 0.0316009,0.056639,0.038257,0.1093976,0.0039045,0.0452113,0.0129564,0.
 043398,0.1106584,0.009952,-0.0217522,-0.0034274,-0.0707505,-0.0039003,
 0.0124912,-0.0274946,0.0379252,-0.2392374,0.0421706,0.2704461,0.089201
 1,-0.5824605,0.2718537,0.2011508,0.6813161,-0.4657316,0.1076374,-0.071
 0835,-0.0708072,-0.0361394,0.1563883,-0.0352127,-0.1889418,-0.2611249,
 0.0896268,-0.625737,-0.1927979,-0.0412425,-0.1944418,-0.2337826,-0.116
 9092,-0.0520081,-0.276679,-0.1397713,0.3711936,-0.1943867,0.1472066,0.
 0904502,0.0132544,0.1484772,0.0585919,-0.0351384,0.2299817\Polar=32.77
 0809,11.0710278,33.2766758,2.99006,-6.7592523,34.3997621\PG=C01 [X(C3H
 5O1)]\NImag=1\\0.56376236,0.00689096,0.51761160,0.03343393,0.03993196,
 0.50950646,-0.08123865,-0.00349717,0.00819082,0.28749318,-0.01096151,-
 0.12323964,0.06254519,0.12553320,0.41459281,0.01015139,0.06323106,-0.1
 6373738,0.00197141,-0.21352079,0.52953375,-0.20219244,-0.04190855,-0.1
 2900455,0.00110329,0.00066854,0.00407181,0.21847058,-0.04422299,-0.061
 59647,-0.03607796,0.01867791,0.00263389,0.01386838,0.04749292,0.065571
 72,-0.12626672,-0.03330073,-0.15499326,-0.02262051,-0.00806920,-0.0195
 2489,0.14082597,0.03464696,0.17184744,-0.24469436,0.03873822,0.1013926
 1,-0.00163733,-0.00329733,0.00279718,-0.02123228,0.00483676,0.01248046
 ,0.26904539,0.03754828,-0.05007332,-0.01839656,-0.02435762,-0.00131995
 ,0.01400256,-0.00667195,-0.00023666,0.00398911,-0.04135536,0.05745248,
 0.10313837,-0.01914785,-0.10239987,0.02906023,-0.00279948,-0.01894185,
 -0.01983313,0.00421745,0.01181504,-0.11657576,0.01789607,0.11195105,-0
 .04559519,0.00901297,-0.00105111,-0.00351892,-0.00566189,0.00033698,0.
 00119454,-0.02651436,-0.00563326,-0.00188846,0.03086626,0.00796024,0.0
 4808262,0.00894977,-0.28835776,-0.06626045,-0.00014544,-0.02437724,-0.
 00088402,0.00042981,-0.00525658,-0.00157306,0.00023981,-0.00585364,-0.
 00198397,-0.00883962,0.32073383,-0.00087813,-0.06614112,-0.06675889,-0
 .00212205,0.03623394,0.00628562,0.00259813,-0.02118737,-0.00590883,-0.
 00002965,-0.01626152,-0.00477813,-0.00251909,0.06981120,0.07336265,0.0
 0231517,0.00123477,-0.00075640,-0.13077830,-0.15076388,0.07789842,0.00
 057483,-0.00002850,0.00067084,0.00100100,0.00067365,-0.00022842,0.0010
 7580,0.00136952,0.00029086,0.34618429,-0.00935966,0.00171672,0.0020194
 1,-0.06226704,-0.19337942,0.11349710,0.00082249,0.00026141,0.00009816,
 0.00064298,-0.00019938,0.00074578,0.00098682,0.00094532,-0.00085442,0.
 29648252,0.33343682,0.00340692,0.02371405,0.00809118,-0.03174094,-0.00
 589773,-0.11901960,0.00020442,-0.00079609,0.00056733,0.00093889,-0.002
 02855,0.00055516,0.00070940,0.00238764,-0.00445957,0.06375414,0.099958
 14,0.14424181,-0.00067700,0.00197662,0.00040654,0.00404038,-0.00034633
 ,-0.01038841,0.00039297,-0.00025760,0.00025573,-0.00017241,-0.00014030
 ,-0.00010947,0.00032794,0.00025592,-0.00043578,-0.12968449,-0.12245608
 ,-0.07826149,0.13126988,-0.00118858,0.00001859,0.00084631,-0.02073250,
 -0.01384249,-0.02395036,0.00001720,-0.00024682,0.00036716,0.00020536,-
 0.00051867,0.00051474,-0.00001282,0.00003913,0.00018860,-0.10661225,-0
 .12240078,-0.10074948,0.12497016,0.13830522,0.00149791,-0.00189300,-0.
 00033261,0.03262667,0.02979992,0.00057186,-0.00008913,-0.00000190,0.00
 020137,-0.00008752,0.00059029,-0.00045593,-0.00005473,-0.00019999,0.00
 034451,-0.12035652,-0.13032711,-0.11057800,0.09957724,0.10567038,0.116
 56253,0.00175815,-0.00239237,-0.00085889,-0.14655214,-0.01034110,-0.09
 347687,0.00187328,-0.00101816,0.00124219,0.00022290,0.00064715,-0.0014
 8309,0.00090334,-0.00033815,0.00107961,-0.12634936,-0.08228980,-0.0479
 9011,0.00219696,-0.00534714,-0.01369350,0.27899216,0.01227200,0.004177
 91,0.01998707,-0.08159171,-0.09738765,-0.02291126,-0.00077028,-0.00211
 067,0.00428871,0.00111277,-0.00020209,0.00057846,0.00047829,0.00259454
 ,-0.00167369,-0.08325642,0.02318356,-0.08256758,0.00168443,-0.00678087
 ,0.00155779,0.08952789,0.06778500,-0.02104174,-0.00964083,-0.03107064,
 -0.02116773,0.05181968,-0.14611661,0.00126051,0.00507648,-0.00367700,-
 0.00102239,0.00060384,0.00165085,-0.00007612,-0.00200940,0.00263260,-0
 .02252420,-0.06213136,0.09310774,-0.00901025,0.01023412,-0.00643810,0.
 13895604,0.06273036,0.13881566,0.00656198,-0.01005546,-0.01175295,0.07
 108848,0.05517031,0.00663808,-0.00018478,0.00103402,-0.00095469,-0.000
 64446,0.00278988,-0.00192897,-0.00058168,-0.00192164,0.00201611,0.0356
 6105,-0.02256222,0.08897878,-0.00769423,0.00870057,0.00057959,-0.01304
 529,0.06054303,-0.06537413,-0.09116106,0.00007172,-0.00025762,-0.00459
 497,0.04838037,0.03631968,0.05666732,-0.00008018,0.00098018,-0.0004471
 0,-0.00112322,0.00095123,-0.00002119,-0.00031565,-0.00046759,-0.000115
 62,0.04090059,-0.04356425,0.06597960,-0.00568682,0.00542670,-0.0051963
 9,0.01155169,0.00874025,-0.05668289,-0.09369849,-0.00812859,-0.0034419
 2,0.00324645,0.00169501,0.00580210,0.04988847,-0.06905090,-0.00003401,
 0.00025406,-0.00032720,0.00010619,-0.00039524,0.00060369,0.00032768,0.
 00071205,-0.00071996,0.00125128,-0.02300569,-0.01250604,-0.00203410,0.
 00687853,0.00012436,0.01622461,0.01801015,-0.04890450,-0.01820183,-0.0
 5558877,0.12908554\\0.00000189,0.00000217,0.00000450,-0.00000011,-0.00
 000056,-0.00000053,-0.00000137,0.00000259,-0.00000067,0.00000388,0.000
 00012,-0.00000042,0.00000255,0.00000389,0.00000378,-0.00000388,0.00000
 111,-0.00000346,-0.00000283,0.00000209,-0.00000239,0.00000094,-0.00000
 865,0.00000019,-0.00000107,-0.00000277,-0.00000100\\\@


 LIFE IS SO UNCERTAIN - EAT DESSERT FIRST.
 Job cpu time:       0 days  0 hours 10 minutes 14.9 seconds.
 File lengths (MBytes):  RWF=      9 Int=      0 D2E=      0 Chk=      1 Scr=      1
 Normal termination of Gaussian 09 at Fri Jan  8 05:52:00 2021.
