9
Properties=species:S:1:pos:R:3 energy=-725.7995995144693 pbc="F F F"
C        0.10370491       1.02799808       0.42018607
C       -0.14298862      -0.45670727       0.43125584
O       -0.40240030      -1.06349114       1.44694814
C       -0.04373248      -1.10260619      -0.88105737
H        0.88888802      -1.49182535      -1.23115748
H       -0.90219946      -1.19649527      -1.51197943
H       -0.77063608       1.56673248       0.81512587
H        0.32617778       1.43242263      -0.57315876
H        0.94318623       1.28397202       1.08383713
9
Properties=species:S:1:pos:R:3 energy=-725.7995978571494 pbc="F F F"
C        0.10370454       1.02799373       0.42018386
C       -0.14299026      -0.45671185       0.43126146
O       -0.40240147      -1.06348946       1.44695738
C       -0.04373503      -1.10261452      -0.88104985
H        0.88889082      -1.49181094      -1.23116098
H       -0.90219642      -1.19648090      -1.51198289
H       -0.77063607       1.56673041       0.81512126
H        0.32617695       1.43241371      -0.57316287
H        0.94318694       1.28396982       1.08383264
9
Properties=species:S:1:pos:R:3 energy=-725.7995961944727 pbc="F F F"
C        0.10370417       1.02798938       0.42018165
C       -0.14299190      -0.45671644       0.43126708
O       -0.40240265      -1.06348778       1.44696663
C       -0.04373758      -1.10262286      -0.88104232
H        0.88889362      -1.49179651      -1.23116449
H       -0.90219337      -1.19646651      -1.51198635
H       -0.77063607       1.56672832       0.81511665
H        0.32617612       1.43240478      -0.57316698
H        0.94318766       1.28396762       1.08382814
9
Properties=species:S:1:pos:R:3 energy=-725.7995945263922 pbc="F F F"
C        0.10370379       1.02798502       0.42017943
C       -0.14299354      -0.45672103       0.43127272
O       -0.40240382      -1.06348610       1.44697590
C       -0.04374014      -1.10263122      -0.88103478
H        0.88889642      -1.49178205      -1.23116800
H       -0.90219032      -1.19645209      -1.51198982
H       -0.77063607       1.56672624       0.81511202
H        0.32617530       1.43239582      -0.57317110
H        0.94318838       1.28396542       1.08382363
9
Properties=species:S:1:pos:R:3 energy=-725.7995928529118 pbc="F F F"
C        0.10370342       1.02798066       0.42017722
C       -0.14299518      -0.45672564       0.43127836
O       -0.40240500      -1.06348442       1.44698518
C       -0.04374271      -1.10263959      -0.88102723
H        0.88889922      -1.49176757      -1.23117151
H       -0.90218726      -1.19643766      -1.51199330
H       -0.77063606       1.56672415       0.81510739
H        0.32617446       1.43238686      -0.57317522
H        0.94318910       1.28396321       1.08381911
9
Properties=species:S:1:pos:R:3 energy=-725.7995911740044 pbc="F F F"
C        0.10370305       1.02797629       0.42017500
C       -0.14299683      -0.45673025       0.43128401
O       -0.40240618      -1.06348273       1.44699448
C       -0.04374528      -1.10264797      -0.88101966
H        0.88890203      -1.49175307      -1.23117503
H       -0.90218420      -1.19642320      -1.51199678
H       -0.77063606       1.56672206       0.81510275
H        0.32617363       1.43237787      -0.57317935
H        0.94318983       1.28396100       1.08381459
9
Properties=species:S:1:pos:R:3 energy=-725.799589489656 pbc="F F F"
C        0.10370268       1.02797191       0.42017277
C       -0.14299848      -0.45673487       0.43128968
O       -0.40240736      -1.06348104       1.44700379
C       -0.04374785      -1.10265637      -0.88101208
H        0.88890485      -1.49173854      -1.23117856
H       -0.90218113      -1.19640871      -1.51200027
H       -0.77063606       1.56671996       0.81509810
H        0.32617280       1.43236888      -0.57318349
H        0.94319055       1.28395879       1.08381006
9
Properties=species:S:1:pos:R:3 energy=-725.7995877998563 pbc="F F F"
C        0.10370230       1.02796752       0.42017055
C       -0.14300013      -0.45673950       0.43129535
O       -0.40240854      -1.06347935       1.44701312
C       -0.04375043      -1.10266478      -0.88100448
H        0.88890766      -1.49172399      -1.23118210
H       -0.90217805      -1.19639420      -1.51200376
H       -0.77063607       1.56671786       0.81509344
H        0.32617196       1.43235987      -0.57318763
H        0.94319128       1.28395657       1.08380552
9
Properties=species:S:1:pos:R:3 energy=-725.7995861045697 pbc="F F F"
C        0.10370193       1.02796313       0.42016832
C       -0.14300178      -0.45674413       0.43130103
O       -0.40240973      -1.06347766       1.44702247
C       -0.04375301      -1.10267320      -0.88099688
H        0.88891048      -1.49170941      -1.23118564
H       -0.90217497      -1.19637967      -1.51200726
H       -0.77063607       1.56671575       0.81508877
H        0.32617113       1.43235084      -0.57319178
H        0.94319201       1.28395434       1.08380097
9
Properties=species:S:1:pos:R:3 energy=-725.7995844037963 pbc="F F F"
C        0.10370155       1.02795873       0.42016608
C       -0.14300344      -0.45674877       0.43130672
O       -0.40241092      -1.06347596       1.44703183
C       -0.04375559      -1.10268163      -0.88098926
H        0.88891331      -1.49169481      -1.23118918
H       -0.90217188      -1.19636511      -1.51201076
H       -0.77063607       1.56671365       0.81508409
H        0.32617029       1.43234180      -0.57319594
H        0.94319275       1.28395211       1.08379641
9
Properties=species:S:1:pos:R:3 energy=-725.7995826975042 pbc="F F F"
C        0.10370118       1.02795433       0.42016385
C       -0.14300510      -0.45675342       0.43131243
O       -0.40241210      -1.06347426       1.44704121
C       -0.04375818      -1.10269008      -0.88098163
H        0.88891614      -1.49168018      -1.23119273
H       -0.90216878      -1.19635053      -1.51201427
H       -0.77063608       1.56671153       0.81507941
H        0.32616945       1.43233274      -0.57320010
H        0.94319349       1.28394987       1.08379184
9
Properties=species:S:1:pos:R:3 energy=-725.7995809856792 pbc="F F F"
C        0.10370080       1.02794991       0.42016161
C       -0.14300676      -0.45675808       0.43131814
O       -0.40241330      -1.06347255       1.44705060
C       -0.04376078      -1.10269854      -0.88097398
H        0.88891897      -1.49166553      -1.23119629
H       -0.90216568      -1.19633593      -1.51201778
H       -0.77063609       1.56670942       0.81507471
H        0.32616861       1.43232367      -0.57320427
H        0.94319423       1.28394764       1.08378727
9
Properties=species:S:1:pos:R:3 energy=-725.799579268312 pbc="F F F"
C        0.10370042       1.02794550       0.42015937
C       -0.14300843      -0.45676274       0.43132386
O       -0.40241449      -1.06347085       1.44706001
C       -0.04376337      -1.10270702      -0.88096632
H        0.88892180      -1.49165086      -1.23119986
H       -0.90216257      -1.19632130      -1.51202130
H       -0.77063610       1.56670730       0.81507001
H        0.32616777       1.43231458      -0.57320844
H        0.94319497       1.28394539       1.08378268
9
Properties=species:S:1:pos:R:3 energy=-725.7995775453713 pbc="F F F"
C        0.10370004       1.02794107       0.42015713
C       -0.14301010      -0.45676741       0.43132959
O       -0.40241569      -1.06346914       1.44706943
C       -0.04376598      -1.10271550      -0.88095865
H        0.88892464      -1.49163616      -1.23120343
H       -0.90215946      -1.19630664      -1.51202483
H       -0.77063611       1.56670517       0.81506529
H        0.32616692       1.43230548      -0.57321263
H        0.94319572       1.28394314       1.08377809
9
Properties=species:S:1:pos:R:3 energy=-725.7995758168515 pbc="F F F"
C        0.10369966       1.02793664       0.42015488
C       -0.14301177      -0.45677209       0.43133533
O       -0.40241688      -1.06346743       1.44707887
C       -0.04376858      -1.10272400      -0.88095097
H        0.88892749      -1.49162143      -1.23120701
H       -0.90215634      -1.19629197      -1.51202836
H       -0.77063612       1.56670304       0.81506057
H        0.32616608       1.43229636      -0.57321681
H        0.94319647       1.28394089       1.08377349
9
Properties=species:S:1:pos:R:3 energy=-725.7995740827286 pbc="F F F"
C        0.10369928       1.02793220       0.42015263
C       -0.14301344      -0.45677678       0.43134109
O       -0.40241808      -1.06346571       1.44708833
C       -0.04377119      -1.10273251      -0.88094327
H        0.88893033      -1.49160669      -1.23121059
H       -0.90215322      -1.19627726      -1.51203190
H       -0.77063613       1.56670091       0.81505584
H        0.32616523       1.43228722      -0.57322101
H        0.94319722       1.28393863       1.08376888
9
Properties=species:S:1:pos:R:3 energy=-725.7995723429779 pbc="F F F"
C        0.10369890       1.02792775       0.42015038
C       -0.14301512      -0.45678148       0.43134685
O       -0.40241928      -1.06346399       1.44709780
C       -0.04377381      -1.10274104      -0.88093556
H        0.88893318      -1.49159191      -1.23121418
H       -0.90215008      -1.19626254      -1.51203545
H       -0.77063615       1.56669877       0.81505110
H        0.32616438       1.43227807      -0.57322521
H        0.94319797       1.28393637       1.08376427
9
Properties=species:S:1:pos:R:3 energy=-725.7995705975908 pbc="F F F"
C        0.10369852       1.02792330       0.42014812
C       -0.14301680      -0.45678618       0.43135262
O       -0.40242049      -1.06346227       1.44710729
C       -0.04377643      -1.10274958      -0.88092784
H        0.88893604      -1.49157711      -1.23121777
H       -0.90214695      -1.19624779      -1.51203900
H       -0.77063616       1.56669663       0.81504635
H        0.32616353       1.43226891      -0.57322942
H        0.94319873       1.28393410       1.08375964
9
Properties=species:S:1:pos:R:3 energy=-725.7995688465508 pbc="F F F"
C        0.10369814       1.02791884       0.42014587
C       -0.14301848      -0.45679089       0.43135840
O       -0.40242169      -1.06346055       1.44711680
C       -0.04377905      -1.10275813      -0.88092011
H        0.88893890      -1.49156229      -1.23122138
H       -0.90214380      -1.19623301      -1.51204255
H       -0.77063618       1.56669448       0.81504159
H        0.32616268       1.43225973      -0.57323363
H        0.94319949       1.28393183       1.08375501
9
Properties=species:S:1:pos:R:3 energy=-725.7995670898317 pbc="F F F"
C        0.10369776       1.02791437       0.42014361
C       -0.14302017      -0.45679561       0.43136420
O       -0.40242290      -1.06345882       1.44712632
C       -0.04378167      -1.10276670      -0.88091236
H        0.88894176      -1.49154744      -1.23122498
H       -0.90214065      -1.19621822      -1.51204611
H       -0.77063620       1.56669234       0.81503682
H        0.32616183       1.43225054      -0.57323785
H        0.94320025       1.28392955       1.08375036
9
Properties=species:S:1:pos:R:3 energy=-725.7995653274121 pbc="F F F"
C        0.10369738       1.02790989       0.42014134
C       -0.14302186      -0.45680034       0.43137000
O       -0.40242411      -1.06345709       1.44713586
C       -0.04378431      -1.10277527      -0.88090460
H        0.88894462      -1.49153257      -1.23122860
H       -0.90213750      -1.19620339      -1.51204968
H       -0.77063622       1.56669018       0.81503204
H        0.32616097       1.43224133      -0.57324208
H        0.94320101       1.28392727       1.08374571
9
Properties=species:S:1:pos:R:3 energy=-725.7995635592889 pbc="F F F"
C        0.10369699       1.02790541       0.42013908
C       -0.14302355      -0.45680507       0.43137581
O       -0.40242532      -1.06345536       1.44714541
C       -0.04378694      -1.10278387      -0.88089682
H        0.88894749      -1.49151768      -1.23123222
H       -0.90213433      -1.19618854      -1.51205325
H       -0.77063624       1.56668802       0.81502725
H        0.32616012       1.43223210      -0.57324631
H        0.94320178       1.28392498       1.08374105
9
Properties=species:S:1:pos:R:3 energy=-725.7995617854218 pbc="F F F"
C        0.10369661       1.02790092       0.42013681
C       -0.14302525      -0.45680981       0.43138163
O       -0.40242654      -1.06345362       1.44715498
C       -0.04378958      -1.10279247      -0.88088903
H        0.88895037      -1.49150275      -1.23123585
H       -0.90213116      -1.19617367      -1.51205683
H       -0.77063626       1.56668586       0.81502246
H        0.32615926       1.43222286      -0.57325055
H        0.94320255       1.28392269       1.08373638
9
Properties=species:S:1:pos:R:3 energy=-725.7995600058176 pbc="F F F"
C        0.10369622       1.02789643       0.42013453
C       -0.14302694      -0.45681456       0.43138747
O       -0.40242775      -1.06345189       1.44716457
C       -0.04379222      -1.10280109      -0.88088123
H        0.88895324      -1.49148781      -1.23123948
H       -0.90212799      -1.19615878      -1.51206042
H       -0.77063629       1.56668370       0.81501765
H        0.32615840       1.43221360      -0.57325480
H        0.94320333       1.28392039       1.08373171
9
Properties=species:S:1:pos:R:3 energy=-725.799558220435 pbc="F F F"
C        0.10369584       1.02789193       0.42013226
C       -0.14302864      -0.45681932       0.43139331
O       -0.40242897      -1.06345014       1.44717417
C       -0.04379487      -1.10280972      -0.88087342
H        0.88895612      -1.49147284      -1.23124312
H       -0.90212481      -1.19614385      -1.51206401
H       -0.77063631       1.56668153       0.81501284
H        0.32615754       1.43220433      -0.57325905
H        0.94320410       1.28391809       1.08372702
9
Properties=species:S:1:pos:R:3 energy=-725.799556429267 pbc="F F F"
C        0.10369545       1.02788742       0.42012998
C       -0.14303035      -0.45682408       0.43139916
O       -0.40243019      -1.06344840       1.44718379
C       -0.04379753      -1.10281836      -0.88086559
H        0.88895901      -1.49145784      -1.23124677
H       -0.90212162      -1.19612891      -1.51206761
H       -0.77063634       1.56667935       0.81500801
H        0.32615668       1.43219504      -0.57326331
H        0.94320488       1.28391578       1.08372233
9
Properties=species:S:1:pos:R:3 energy=-725.7995546322868 pbc="F F F"
C        0.10369506       1.02788290       0.42012770
C       -0.14303205      -0.45682886       0.43140503
O       -0.40243141      -1.06344665       1.44719343
C       -0.04380018      -1.10282702      -0.88085775
H        0.88896190      -1.49144282      -1.23125042
H       -0.90211842      -1.19611394      -1.51207121
H       -0.77063637       1.56667717       0.81500318
H        0.32615581       1.43218574      -0.57326758
H        0.94320566       1.28391347       1.08371762
9
Properties=species:S:1:pos:R:3 energy=-725.7995528294866 pbc="F F F"
C        0.10369468       1.02787838       0.42012542
C       -0.14303376      -0.45683364       0.43141090
O       -0.40243264      -1.06344490       1.44720308
C       -0.04380284      -1.10283569      -0.88084990
H        0.88896479      -1.49142777      -1.23125408
H       -0.90211522      -1.19609894      -1.51207482
H       -0.77063640       1.56667499       0.81499833
H        0.32615495       1.43217642      -0.57327185
H        0.94320645       1.28391115       1.08371291
9
Properties=species:S:1:pos:R:3 energy=-725.7995510208378 pbc="F F F"
C        0.10369429       1.02787385       0.42012313
C       -0.14303547      -0.45683843       0.43141678
O       -0.40243386      -1.06344315       1.44721275
C       -0.04380551      -1.10284437      -0.88084203
H        0.88896768      -1.49141270      -1.23125774
H       -0.90211201      -1.19608392      -1.51207843
H       -0.77063644       1.56667280       0.81499348
H        0.32615408       1.43216709      -0.57327613
H        0.94320724       1.28390883       1.08370819
9
Properties=species:S:1:pos:R:3 energy=-725.7995492063294 pbc="F F F"
C        0.10369390       1.02786931       0.42012084
C       -0.14303719      -0.45684322       0.43142268
O       -0.40243509      -1.06344139       1.44722243
C       -0.04380818      -1.10285307      -0.88083415
H        0.88897058      -1.49139760      -1.23126141
H       -0.90210880      -1.19606888      -1.51208205
H       -0.77063647       1.56667061       0.81498862
H        0.32615321       1.43215774      -0.57328041
H        0.94320803       1.28390650       1.08370346
9
Properties=species:S:1:pos:R:3 energy=-725.7995473859314 pbc="F F F"
C        0.10369351       1.02786476       0.42011855
C       -0.14303890      -0.45684803       0.43142858
O       -0.40243632      -1.06343963       1.44723213
C       -0.04381085      -1.10286178      -0.88082625
H        0.88897349      -1.49138248      -1.23126509
H       -0.90210558      -1.19605381      -1.51208568
H       -0.77063651       1.56666842       0.81498375
H        0.32615234       1.43214837      -0.57328471
H        0.94320882       1.28390417       1.08369872
9
Properties=species:S:1:pos:R:3 energy=-725.7995455596316 pbc="F F F"
C        0.10369312       1.02786021       0.42011625
C       -0.14304063      -0.45685284       0.43143450
O       -0.40243755      -1.06343787       1.44724185
C       -0.04381353      -1.10287050      -0.88081835
H        0.88897639      -1.49136733      -1.23126878
H       -0.90210235      -1.19603871      -1.51208931
H       -0.77063654       1.56666622       0.81497887
H        0.32615147       1.43213899      -0.57328901
H        0.94320962       1.28390183       1.08369398
9
Properties=species:S:1:pos:R:3 energy=-725.7995437274138 pbc="F F F"
C        0.10369273       1.02785565       0.42011395
C       -0.14304235      -0.45685766       0.43144042
O       -0.40243879      -1.06343610       1.44725158
C       -0.04381621      -1.10287924      -0.88081043
H        0.88897930      -1.49135215      -1.23127247
H       -0.90209912      -1.19602359      -1.51209295
H       -0.77063658       1.56666401       0.81497398
H        0.32615060       1.43212959      -0.57329331
H        0.94321042       1.28389949       1.08368922
9
Properties=species:S:1:pos:R:3 energy=-725.7995418892558 pbc="F F F"
C        0.10369233       1.02785109       0.42011165
C       -0.14304407      -0.45686249       0.43144636
O       -0.40244002      -1.06343433       1.44726134
C       -0.04381890      -1.10288799      -0.88080249
H        0.88898222      -1.49133696      -1.23127616
H       -0.90209588      -1.19600845      -1.51209660
H       -0.77063662       1.56666180       0.81496907
H        0.32614972       1.43212018      -0.57329762
H        0.94321122       1.28389715       1.08368446
9
Properties=species:S:1:pos:R:3 energy=-725.7995400451401 pbc="F F F"
C        0.10369194       1.02784652       0.42010935
C       -0.14304580      -0.45686732       0.43145230
O       -0.40244126      -1.06343256       1.44727110
C       -0.04382159      -1.10289675      -0.88079455
H        0.88898514      -1.49132173      -1.23127987
H       -0.90209263      -1.19599328      -1.51210025
H       -0.77063666       1.56665959       0.81496417
H        0.32614885       1.43211075      -0.57330194
H        0.94321203       1.28389479       1.08367968
9
Properties=species:S:1:pos:R:3 energy=-725.7995381950383 pbc="F F F"
C        0.10369155       1.02784194       0.42010704
C       -0.14304754      -0.45687217       0.43145826
O       -0.40244250      -1.06343078       1.44728089
C       -0.04382428      -1.10290553      -0.88078658
H        0.88898806      -1.49130648      -1.23128358
H       -0.90208938      -1.19597809      -1.51210391
H       -0.77063671       1.56665737       0.81495925
H        0.32614797       1.43210130      -0.57330627
H        0.94321283       1.28389244       1.08367490
9
Properties=species:S:1:pos:R:3 energy=-725.7995363389385 pbc="F F F"
C        0.10369115       1.02783735       0.42010473
C       -0.14304927      -0.45687702       0.43146423
O       -0.40244375      -1.06342900       1.44729069
C       -0.04382698      -1.10291432      -0.88077861
H        0.88899098      -1.49129121      -1.23128729
H       -0.90208612      -1.19596287      -1.51210757
H       -0.77063675       1.56665515       0.81495432
H        0.32614709       1.43209184      -0.57331060
H        0.94321365       1.28389007       1.08367011
9
Properties=species:S:1:pos:R:3 energy=-725.7995344768277 pbc="F F F"
C        0.10369076       1.02783276       0.42010242
C       -0.14305101      -0.45688188       0.43147021
O       -0.40244499      -1.06342722       1.44730051
C       -0.04382969      -1.10292312      -0.88077062
H        0.88899391      -1.49127590      -1.23129102
H       -0.90208285      -1.19594762      -1.51211124
H       -0.77063680       1.56665293       0.81494938
H        0.32614621       1.43208236      -0.57331494
H        0.94321446       1.28388771       1.08366531
9
Properties=species:S:1:pos:R:3 energy=-725.7995326086691 pbc="F F F"
C        0.10369036       1.02782816       0.42010010
C       -0.14305275      -0.45688675       0.43147619
O       -0.40244624      -1.06342544       1.44731034
C       -0.04383240      -1.10293194      -0.88076262
H        0.88899685      -1.49126058      -1.23129475
H       -0.90207958      -1.19593235      -1.51211491
H       -0.77063685       1.56665070       0.81494443
H        0.32614533       1.43207287      -0.57331929
H        0.94321528       1.28388533       1.08366050
9
Properties=species:S:1:pos:R:3 energy=-725.7995307344537 pbc="F F F"
C        0.10368997       1.02782355       0.42009778
C       -0.14305450      -0.45689162       0.43148219
O       -0.40244749      -1.06342365       1.44732019
C       -0.04383511      -1.10294077      -0.88075461
H        0.88899978      -1.49124523      -1.23129848
H       -0.90207630      -1.19591706      -1.51211860
H       -0.77063690       1.56664846       0.81493947
H        0.32614444       1.43206336      -0.57332364
H        0.94321610       1.28388296       1.08365568
9
Properties=species:S:1:pos:R:3 energy=-725.7995288541555 pbc="F F F"
C        0.10368957       1.02781893       0.42009546
C       -0.14305624      -0.45689651       0.43148820
O       -0.40244874      -1.06342186       1.44733006
C       -0.04383782      -1.10294962      -0.88074658
H        0.88900273      -1.49122985      -1.23130223
H       -0.90207302      -1.19590174      -1.51212228
H       -0.77063695       1.56664622       0.81493450
H        0.32614356       1.43205384      -0.57332800
H        0.94321692       1.28388057       1.08365086
9
Properties=species:S:1:pos:R:3 energy=-725.7995269677759 pbc="F F F"
C        0.10368917       1.02781431       0.42009314
C       -0.14305799      -0.45690140       0.43149422
O       -0.40244999      -1.06342006       1.44733995
C       -0.04384055      -1.10295847      -0.88073854
H        0.88900567      -1.49121444      -1.23130598
H       -0.90206972      -1.19588639      -1.51212598
H       -0.77063701       1.56664398       0.81492953
H        0.32614267       1.43204430      -0.57333237
H        0.94321775       1.28387819       1.08364602
9
Properties=species:S:1:pos:R:3 energy=-725.7995250752703 pbc="F F F"
C        0.10368877       1.02780968       0.42009081
C       -0.14305975      -0.45690630       0.43150025
O       -0.40245125      -1.06341827       1.44734985
C       -0.04384327      -1.10296734      -0.88073048
H        0.88900862      -1.49119901      -1.23130973
H       -0.90206642      -1.19587102      -1.51212968
H       -0.77063706       1.56664173       0.81492454
H        0.32614178       1.43203474      -0.57333674
H        0.94321858       1.28387579       1.08364118
9
Properties=species:S:1:pos:R:3 energy=-725.7995231766266 pbc="F F F"
C        0.10368837       1.02780505       0.42008848
C       -0.14306150      -0.45691121       0.43150629
O       -0.40245251      -1.06341647       1.44735977
C       -0.04384600      -1.10297623      -0.88072241
H        0.88901157      -1.49118356      -1.23131350
H       -0.90206312      -1.19585562      -1.51213338
H       -0.77063712       1.56663948       0.81491954
H        0.32614089       1.43202516      -0.57334112
H        0.94321941       1.28387339       1.08363632
9
Properties=species:S:1:pos:R:3 energy=-725.7995212718218 pbc="F F F"
C        0.10368797       1.02780040       0.42008615
C       -0.14306326      -0.45691612       0.43151234
O       -0.40245377      -1.06341466       1.44736971
C       -0.04384874      -1.10298513      -0.88071433
H        0.88901453      -1.49116808      -1.23131727
H       -0.90205981      -1.19584020      -1.51213709
H       -0.77063718       1.56663722       0.81491454
H        0.32614000       1.43201558      -0.57334550
H        0.94322025       1.28387099       1.08363146
9
Properties=species:S:1:pos:R:3 energy=-725.7995193608427 pbc="F F F"
C        0.10368757       1.02779575       0.42008381
C       -0.14306502      -0.45692105       0.43151841
O       -0.40245503      -1.06341285       1.44737966
C       -0.04385147      -1.10299404      -0.88070623
H        0.88901749      -1.49115257      -1.23132104
H       -0.90205649      -1.19582475      -1.51214081
H       -0.77063724       1.56663496       0.81490952
H        0.32613911       1.43200597      -0.57334990
H        0.94322109       1.28386858       1.08362659
9
Properties=species:S:1:pos:R:3 energy=-725.7995174436679 pbc="F F F"
C        0.10368717       1.02779109       0.42008147
C       -0.14306679      -0.45692598       0.43152448
O       -0.40245629      -1.06341104       1.44738963
C       -0.04385422      -1.10300296      -0.88069812
H        0.88902045      -1.49113703      -1.23132482
H       -0.90205316      -1.19580928      -1.51214454
H       -0.77063731       1.56663269       0.81490449
H        0.32613821       1.43199635      -0.57335430
H        0.94322193       1.28386617       1.08362171
9
Properties=species:S:1:pos:R:3 energy=-725.7995155202768 pbc="F F F"
C        0.10368677       1.02778643       0.42007913
C       -0.14306856      -0.45693092       0.43153056
O       -0.40245756      -1.06340923       1.44739962
C       -0.04385696      -1.10301190      -0.88068999
H        0.88902342      -1.49112147      -1.23132861
H       -0.90204983      -1.19579378      -1.51214827
H       -0.77063737       1.56663042       0.81489946
H        0.32613731       1.43198671      -0.57335871
H        0.94322277       1.28386375       1.08361682
9
Properties=species:S:1:pos:R:3 energy=-725.799513590636 pbc="F F F"
C        0.10368637       1.02778176       0.42007678
C       -0.14307033      -0.45693587       0.43153666
O       -0.40245883      -1.06340741       1.44740962
C       -0.04385972      -1.10302085      -0.88068186
H        0.88902639      -1.49110589      -1.23133241
H       -0.90204649      -1.19577826      -1.51215201
H       -0.77063744       1.56662815       0.81489441
H        0.32613642       1.43197705      -0.57336312
H        0.94322362       1.28386132       1.08361192
9
Properties=species:S:1:pos:R:3 energy=-725.7995116547528 pbc="F F F"
C        0.10368596       1.02777708       0.42007444
C       -0.14307210      -0.45694083       0.43154276
O       -0.40246010      -1.06340559       1.44741965
C       -0.04386247      -1.10302982      -0.88067370
H        0.88902936      -1.49109028      -1.23133621
H       -0.90204314      -1.19576271      -1.51215575
H       -0.77063750       1.56662587       0.81488935
H        0.32613552       1.43196738      -0.57336754
H        0.94322448       1.28385889       1.08360701
9
Properties=species:S:1:pos:R:3 energy=-725.799509712582 pbc="F F F"
C        0.10368556       1.02777239       0.42007208
C       -0.14307388      -0.45694579       0.43154888
O       -0.40246137      -1.06340377       1.44742969
C       -0.04386523      -1.10303880      -0.88066554
H        0.88903234      -1.49107464      -1.23134002
H       -0.90203979      -1.19574713      -1.51215950
H       -0.77063758       1.56662358       0.81488429
H        0.32613461       1.43195770      -0.57337197
H        0.94322533       1.28385645       1.08360209
9
Properties=species:S:1:pos:R:3 energy=-725.7995077641152 pbc="F F F"
C        0.10368515       1.02776770       0.42006973
C       -0.14307566      -0.45695077       0.43155500
O       -0.40246265      -1.06340194       1.44743974
C       -0.04386800      -1.10304779      -0.88065736
H        0.88903532      -1.49105897      -1.23134384
H       -0.90203643      -1.19573153      -1.51216325
H       -0.77063765       1.56662129       0.81487921
H        0.32613371       1.43194799      -0.57337640
H        0.94322619       1.28385401       1.08359716
9
Properties=species:S:1:pos:R:3 energy=-725.7995058093271 pbc="F F F"
C        0.10368475       1.02776300       0.42006737
C       -0.14307744      -0.45695575       0.43156114
O       -0.40246392      -1.06340011       1.44744982
C       -0.04387077      -1.10305679      -0.88064916
H        0.88903831      -1.49104328      -1.23134766
H       -0.90203306      -1.19571590      -1.51216702
H       -0.77063772       1.56661900       0.81487412
H        0.32613281       1.43193827      -0.57338084
H        0.94322705       1.28385156       1.08359223
9
Properties=species:S:1:pos:R:3 energy=-725.7995038481913 pbc="F F F"
C        0.10368434       1.02775829       0.42006501
C       -0.14307923      -0.45696074       0.43156729
O       -0.40246520      -1.06339828       1.44745991
C       -0.04387354      -1.10306581      -0.88064096
H        0.88904130      -1.49102756      -1.23135149
H       -0.90202969      -1.19570025      -1.51217079
H       -0.77063780       1.56661670       0.81486903