9
Properties=species:S:1:pos:R:3:momenta:R:3:forces:R:3 pbc="F F F"
C       -0.15615655      -5.10220874       3.56135531       2.30929641       0.73512108       1.59603036       0.15629582       0.04480749       0.06341382
C       -2.36989783      -6.12171487       2.30323522      -0.37206529       0.26454323      -0.14231471      -0.27722372       0.07278812      -0.05711553
O       -2.11580605      -7.11056927       2.86520099       0.39623938       1.44796147       2.12052303       0.05706658       0.00160814      -0.04997926
C       -2.72010754      -5.03050242       1.67579938      -0.16638389       0.09280503       0.55569339       0.01616509      -0.03943791      -0.00055881
H       -2.29876078      -4.05146498       1.84346831      -0.28012615      -0.81999286       0.17383601       0.02910609      -0.06455535       0.02801077
H       -3.48365915      -4.99375499       0.91324545      -0.18401921       0.26506963       0.33905940       0.01239812      -0.04440430       0.00410574
H        0.22660405      -6.00676042       3.97029247      -0.18099513       0.08621518      -0.44765025      -0.03748243       0.05760082      -0.04226281
H       -0.70702806      -4.44049262       4.18287239       0.38531773      -0.14167343      -0.58057669       0.03263460      -0.02689640      -0.05465779
H        0.05915463      -4.84532695       2.55196877       0.07642137      -0.01974499      -0.23259360       0.01103984      -0.00151061       0.10904386
