20
Properties=species:S:1:pos:R:3 energy=-1589.099610135703 pbc="F F F"
O        0.70329200      -0.48562000      -0.22595700
C        1.88279400      -0.34306000       0.00339300
C        2.77173400      -1.52425300       0.34781500
C        3.90579300      -1.71056800      -0.66300300
C        4.84069200      -0.49213900      -0.78056100
C        5.47353400      -0.15615400       0.50916000
H        6.19127300      -0.83386300       0.94313800
C        5.09815600       1.07514800       1.22118500
O        4.09247400       1.70318200       0.93808300
C        6.01789300       1.51067700       2.32512000
H        2.37804800       0.64505800      -0.00879200
H        3.17780100      -1.37996300       1.36897400
H        2.16035200      -2.45005800       0.39643900
H        4.49404000      -2.60728200      -0.38224000
H        3.47808200      -1.92999700      -1.66321700
H        5.62788100      -0.70835200      -1.53765600
H        4.27370500       0.37808200      -1.18423300
H        6.04139000       0.78421800       3.14783100
H        7.04945900       1.64199600       1.97342300
H        5.69361300       2.47264200       2.75278100
20
Properties=species:S:1:pos:R:3 energy=-1588.940518071661 pbc="F F F"
O        0.72891880      -0.54098278      -0.24837758
C        1.92240306      -0.34775003      -0.00730504
C        2.73323825      -1.53644846       0.38791432
C        3.87809423      -1.69950799      -0.69121982
C        4.87025315      -0.48466964      -0.77837509
C        5.49080626      -0.15233946       0.50854893
H        6.21870328      -0.82060520       0.94752052
C        5.10204367       1.07418240       1.22558358
O        4.08917596       1.69402838       0.94723764
C        6.02060565       1.51934445       2.32820390
H        2.41892132       0.64358748      -0.01169788
H        3.15331066      -1.43891307       1.38995075
H        2.07473939      -2.40936608       0.44597718
H        4.48057323      -2.58989234      -0.42846698
H        3.44701194      -1.89709486      -1.69224240
H        5.64626915      -0.72848562      -1.52932941
H        4.28921173       0.36876851      -1.19258535
H        6.05485691       0.79290413       3.15159002
H        7.04981929       1.66530446       1.97340237
H        5.68305007       2.47762969       2.75535336
20
Properties=species:S:1:pos:R:3 energy=-1588.493645458377 pbc="F F F"
O        0.75552666      -0.59766837      -0.26979737
C        1.96181049      -0.35354307      -0.01701614
C        2.69445341      -1.54737529       0.42641692
C        3.84920741      -1.68826618      -0.71929197
C        4.90040870      -0.47794893      -0.77597569
C        5.50874158      -0.14835297       0.50816391
H        6.24681380      -0.80650967       0.95182109
C        5.10624946       1.07287308       1.22998311
O        4.08601764       1.68385023       0.95654347
C        6.02307577       1.52819622       2.33111748
H        2.46046931       0.63975454      -0.01325630
H        3.12699630      -1.49607116       1.40989010
H        1.99172876      -2.36692072       0.49357444
H        4.46548084      -2.57153138      -0.47539117
H        3.41427445      -1.86375528      -1.72016829
H        5.66570913      -0.74851406      -1.52062141
H        4.30520766       0.35806707      -1.20020690
H        6.06842619       0.80213528       3.15513971
H        7.04939073       1.68896831       1.97299212
H        5.67201769       2.48230635       2.75776589
20
Properties=species:S:1:pos:R:3 energy=-1587.8038414325347 pbc="F F F"
O        0.78311741      -0.65555114      -0.29023946
C        2.00097967      -0.36042791      -0.02576561
C        2.65544535      -1.55705369       0.46331566
C        3.81916464      -1.67684238      -0.74718756
C        4.93112133      -0.47196697      -0.77336031
C        5.52730775      -0.14420360       0.50799714
H        6.27555877      -0.79160085       0.95602950
C        5.11076029       1.07122510       1.23437992
O        4.08300921       1.67266514       0.96598868
C        6.02530120       1.53721706       2.33385734
H        2.50260275       0.63359857      -0.01348646
H        3.09893415      -1.55140517       1.42878754
H        1.91135552      -2.32281416       0.53923844
H        4.44878694      -2.55224548      -0.52293487
H        3.37992050      -1.83001129      -1.74698908
H        5.68616465      -0.76842321      -1.51154519
H        4.32167896       0.34601031      -1.20709492
H        6.08208077       0.81189684       3.15847576
H        7.04818227       1.71295660       1.97219740
H        5.66053388       2.48667023       2.76001911
20
Properties=species:S:1:pos:R:3 energy=-1586.9143582635738 pbc="F F F"
O        0.81169288      -0.71450546      -0.30972694
C        2.03987397      -0.36839331      -0.03357878
C        2.61627993      -1.56550385       0.49860338
C        3.78799797      -1.66523637      -0.77487468
C        4.96235370      -0.46671386      -0.77052644
C        5.54647258      -0.13990043       0.50804080
H        6.30489241      -0.77590317       0.96013551
C        5.11556304       1.06924351       1.23877032
O        4.08016080       1.66049072       0.97556145
C        6.02727978       1.54639175       2.33642009
H        2.54523240       0.62515894      -0.01240758
H        3.06920042      -1.60488299       1.44663857
H        1.83365507      -2.27713867       0.58297682
H        4.43051565      -2.53208095      -0.57102039
H        3.34400106      -1.79589593      -1.77269915
H        5.70759943      -0.78819891      -1.50211395
H        4.33861180       0.33263088      -1.21324672
H        6.09580356       0.82217419       3.16159385
H        7.04620291       1.73723837       1.97102333
H        5.64861664       2.49071955       2.76211353
20
Properties=species:S:1:pos:R:3 energy=-1585.8664294630507 pbc="F F F"
O        0.84125491      -0.77440569      -0.32828290
C        2.07845675      -0.37742806      -0.04048097
C        2.57702301      -1.57274596       0.53227293
C        3.75573949      -1.65344796      -0.80232145
C        4.99406851      -0.46217968      -0.76747158
C        5.56620387      -0.13545252       0.50828711
H        6.33476894      -0.75944107       0.96412890
C        5.12064463       1.06693335       1.24315064
O        4.07748259       1.64734456       0.98524996
C        6.02900935       1.55570505       2.33880233
H        2.58826902       0.61447502      -0.01003887
H        3.03787134      -1.65647250       1.46343870
H        1.75866280      -2.22998647       0.62479724
H        4.41069107      -2.51108415      -0.61957001
H        3.30656708      -1.76144224      -1.79729292
H        5.72997718      -0.80782705      -1.49234091
H        4.35599233       0.31796142      -1.21865959
H        6.10957749       0.83295273       3.16448966
H        7.04346163       1.76178264       1.96947504
H        5.63628401       2.49445256       2.76404967
20
Properties=species:S:1:pos:R:3 energy=-1584.6994010252 pbc="F F F"
O        0.87180531      -0.83512620      -0.34593042
C        2.11669140      -0.38752091      -0.04649750
C        2.53774047      -1.57880023       0.56431718
C        3.72242128      -1.64147693      -0.82949596
C        5.02622841      -0.45835454      -0.76419321
C        5.58646942      -0.13086895       0.50872826
H        6.36514258      -0.74223897       0.96799946
C        5.12599197       1.06429970       1.24751720
O        4.07498473       1.63324427       0.99504240
C        6.03048774       1.56514174       2.34100068
H        2.63162339       0.60158619      -0.00639955
H        3.00502314      -1.70614159       1.47918342
H        1.68641413      -2.18144981       0.66470736
H        4.38933732      -2.48930140      -0.66850604
H        3.26766955      -1.72668324      -1.82076478
H        5.75326161      -0.82729348      -1.48223927
H        4.37380672       0.30203456      -1.22333083
H        6.12338548       0.84421784       3.16715888
H        7.03996738       1.78655847       1.96755766
H        5.62355398       2.49786748       2.76582807
20
Properties=species:S:1:pos:R:3 energy=-1583.4520376022012 pbc="F F F"
O        0.90334593      -0.89654135      -0.36269260
C        2.15454128      -0.39866065      -0.05165371
C        2.49849815      -1.58368684       0.59472897
C        3.68807541      -1.62932309      -0.85636633
C        5.05879608      -0.45522854      -0.76068883
C        5.60723705      -0.12615878       0.50935644
H        6.39596754      -0.72432130       0.97173695
C        5.13159194       1.06134758       1.25186631
O        4.07267736       1.61820745       1.00492696
C        6.03171279       1.57468659       2.34301173
H        2.67520627       0.58653183      -0.00150881
H        2.97073205      -1.75385815       1.49386823
H        1.61694443      -2.13162093       0.70271481
H        4.36647851      -2.46677906      -0.71775076
H        3.22735943      -1.69165198      -1.84310915
H        5.77741643      -0.84658409      -1.47182223
H        4.39204114       0.28488296      -1.22725773
H        6.13721045       0.85595493       3.16959719
H        7.03572917       1.81153487       1.96527633
H        5.61044459       2.50096256       2.76744923
20
Properties=species:S:1:pos:R:3 energy=-1582.1663739188589 pbc="F F F"
O        0.93587858      -0.95852551      -0.37859252
C        2.19196976      -0.41083606      -0.05597490
C        2.45936193      -1.58742598       0.62350115
C        3.65273396      -1.61698623      -0.88290067
C        5.09173421      -0.45279177      -0.75695594
C        5.62847454      -0.12133109       0.51016385
H        6.42719806      -0.70571251       0.97533116
C        5.13743146       1.05808207       1.25619430
O        4.07057066       1.60225169       1.01489181
C        6.03268233       1.58432436       2.34483210
H        2.71892842       0.56935130       0.00461412
H        2.93507428      -1.79959007       1.50748863
H        1.55028913      -2.08059209       0.73882727
H        4.34213877      -2.44356344      -0.76722649
H        3.18568768      -1.65638149      -1.86432041
H        5.80240536      -0.86568472      -1.46110299
H        4.41068173       0.26653924      -1.23043759
H        6.15103532       0.86814937       3.17180028
H        7.03075596       1.83668090       1.96263617
H        5.59697384       2.50373602       2.76891367
20
Properties=species:S:1:pos:R:3 energy=-1580.8964770243342 pbc="F F F"
O        0.96940510      -1.02095305      -0.39365327
C        2.22894023      -0.42403590      -0.05948641
C        2.42039768      -1.59003785       0.65062658
C        3.61642900      -1.60446614      -0.90906707
C        5.12500545      -0.45103434      -0.75299203
C        5.65014972      -0.11639494       0.51114268
H        6.45878834      -0.68643701       0.97877185
C        5.14349744       1.05450821       1.26049749
O        4.06867477       1.58539461       1.02492515
C        6.03339420       1.59403983       2.34645840
H        2.76270063       0.55008399       0.01195003
H        2.89812607      -1.84330524       1.52004011
H        1.48648361      -2.02845552       0.77305237
H        4.31634220      -2.41970089      -0.81685551
H        3.14270529      -1.62090479      -1.88439297
H        5.82819212      -0.88458127      -1.45009477
H        4.42971467       0.24703606      -1.23286769
H        6.16484302       0.88078656       3.17376381
H        7.02505672       1.86196559       1.95964231
H        5.58315976       2.50618610       2.77022193
20
Properties=species:S:1:pos:R:3 energy=-1579.726397961992 pbc="F F F"
O        1.00392732      -1.08369833      -0.40789795
C        2.26541605      -0.43824896      -0.06221355
C        2.38167124      -1.59154264       0.67609810
C        3.57919262      -1.59176262      -0.93483364
C        5.15857249      -0.44994633      -0.74879460
C        5.67223037      -0.11135942       0.51228514
H        6.49069261      -0.66651925       0.98204881
C        5.14977676       1.05063105       1.26477219
O        4.06699985       1.56765379       1.03501516
C        6.03384624       1.60381776       2.34788722
H        2.80643365       0.52876927       0.02047970
H        2.85996363      -1.88497154       1.53151819
H        1.42556327      -1.97530346       0.80539778
H        4.28911291      -2.39523775      -0.86656013
H        3.09846320      -1.58525494      -1.90332124
H        5.85474040      -0.90325958      -1.43881075
H        4.44912612       0.22640605      -1.23454534
H        6.17861645       0.89385188       3.17548349
H        7.01864045       1.88735797       1.95629989
H        5.56902036       2.50831104       2.77137452
20
Properties=species:S:1:pos:R:3 energy=-1578.90938430675 pbc="F F F"
O        1.03944707      -1.14663572      -0.42134963
C        2.30136059      -0.45346400      -0.06418165
C        2.34324850      -1.59196055       0.69990857
C        3.54105688      -1.57887546      -0.96016849
C        5.19239801      -0.44951784      -0.74436114
C        5.69468430      -0.10623359       0.51358341
H        6.52286508      -0.64598365       0.98515182
C        5.15625635       1.04645565       1.26901474
O        4.06555606       1.54904684       1.04515002
C        6.03403628       1.61364292       2.34911518
H        2.85003824       0.50544652       0.03018394
H        2.82066320      -1.92455686       1.54191835
H        1.36756352      -1.92122817       0.83587114
H        4.26047502      -2.37022035      -0.91626263
H        3.05301239      -1.54946495      -1.92109961
H        5.88201394      -0.92170553      -1.42726415
H        4.46890225       0.20468185      -1.23546784
H        6.19233856       0.90733074       3.17695499
H        7.01151611       1.91282709       1.95261404
H        5.55457365       2.51010907       2.77237195
20
Properties=species:S:1:pos:R:3 energy=-1578.730005061826 pbc="F F F"
O        1.07596618      -1.20963959      -0.43403142
C        2.33673724      -0.46966980      -0.06541603
C        2.30519530      -1.59131176       0.72205084
C        3.50205387      -1.56580447      -0.98503973
C        5.22644466      -0.44973897      -0.73968914
C        5.71747932      -0.10102651       0.51502970
H        6.55525997      -0.62485464       0.98807064
C        5.16292310       1.04198705       1.27322144
O        4.06435355       1.52959136       1.05531791
C        6.03396217       1.62350008       2.35013888
H        2.89342519       0.48015510       0.04104352
H        2.78030099      -1.96202909       1.55123609
H        1.31251976      -1.86632189       0.86448011
H        4.23045265      -2.34469503      -0.96588532
H        3.00640384      -1.51356787      -1.93772248
H        5.90997644      -0.93990499      -1.41546818
H        4.48902920       0.18189611      -1.23563246
H        6.20599225       0.92120851       3.17817400
H        7.00369268       1.93834198       1.94858989
H        5.53983765       2.51157843       2.77321476
20
Properties=species:S:1:pos:R:3 energy=-1578.9769241708163 pbc="F F F"
O        1.11348647      -1.27258429      -0.44596639
C        2.37150935      -0.48685513      -0.06594202
C        2.26757752      -1.58961648       0.74251776
C        3.46221566      -1.55254943      -1.00941545
C        5.26067514      -0.45059983      -0.73477611
C        5.74058323      -0.09574727       0.51661621
H        6.58783151      -0.60315666       0.99079506
C        5.16976391       1.03723032       1.27738863
O        4.06340248       1.50930495       1.06550702
C        6.03362173       1.63337402       2.35095494
H        2.93650526       0.45293440       0.05303923
H        2.73895324      -1.99735612       1.55946692
H        1.26046738      -1.81067686       0.89123233
H        4.19906991      -2.31870814      -1.01535050
H        2.95868850      -1.47759673      -1.95318427
H        5.93859161      -0.95784383      -1.40343603
H        4.50949316       0.15808147      -1.23503652
H        6.21956045       0.93547059       3.17913619
H        6.99517914       1.96387167       1.94423256
H        5.52483038       2.51271735       2.77390345
20
Properties=species:S:1:pos:R:3 energy=-1579.4129200699258 pbc="F F F"
O        1.15200978      -1.33534420      -0.45717764
C        2.40564030      -0.50500878      -0.06578494
C        2.23046102      -1.58689490       0.76130219
C        3.42157433      -1.53911014      -1.03326377
C        5.29505211      -0.45209050      -0.72961953
C        5.76396383      -0.09040493       0.51833512
H        6.62053390      -0.58091415       0.99331485
C        5.17676570       1.03219051       1.28151261
O        4.06271300       1.48820520       1.07570554
C        6.03301280       1.64324949       2.35155995
H        2.97918920       0.42382380       0.06615186
H        2.69669616      -2.03050584       1.56660632
H        1.21144178      -1.75438532       0.91613547
H        4.16635090      -2.29230599      -1.06458046
H        2.90991734      -1.44158456      -1.96747936
H        5.96782318      -0.97550791      -1.39118090
H        4.53028027       0.13327056      -1.23367730
H        6.23302608       0.95010238       3.17983726
H        6.98598447       1.98938521       1.93954719
H        5.50956985       2.51352406       2.77443856
20
Properties=species:S:1:pos:R:3 energy=-1579.91927076837 pbc="F F F"
O        1.19153793      -1.39779367      -0.46768826
C        2.43909347      -0.52411950      -0.06497010
C        2.19391166      -1.58316720       0.77839697
C        3.38016195      -1.52548640      -1.05655280
C        5.32953825      -0.45420108      -0.72421690
C        5.78758892      -0.08500856       0.52017863
H        6.65332138      -0.55815152       0.99561979
C        5.18391536       1.02687266       1.28558972
O        4.06229527       1.46630973       1.08590165
C        6.03213322       1.65311127       2.35195053
H        3.02138780       0.39286265       0.08036220
H        2.65360599      -2.06144612       1.57264981
H        1.16547837      -1.69753953       0.93919717
H        4.13231976      -2.26553494      -1.11349751
H        2.86014134      -1.40556440      -1.98060217
H        5.99763484      -0.99288310      -1.37871602
H        4.55137670       0.10749604      -1.23155210
H        6.24637206       0.96508925       3.18027288
H        6.97611764       2.01485163       1.93453891
H        5.49407409       2.51399681       2.77482060
20
Properties=species:S:1:pos:R:3 energy=-1580.4332497572711 pbc="F F F"
O        1.23207276      -1.45980709      -0.47752133
C        2.47183222      -0.54417609      -0.06352285
C        2.15799530      -1.57845359       0.79379496
C        3.33801061      -1.51167801      -1.07925063
C        5.36409622      -0.45692167      -0.71856572
C        5.81142631      -0.07956724       0.52213895
H        6.68614816      -0.53489321       0.99769966
C        5.19119980       1.02128183       1.28961626
O        4.06215945       1.44363613       1.09608353
C        6.03098083       1.66294413       2.35212328
H        3.06301182       0.36009035       0.09565103
H        2.60975895      -2.09014488       1.57759288
H        1.12261254      -1.64023171       0.96042509
H        4.09700058      -2.23844132      -1.16202392
H        2.80941146      -1.36956928      -1.99254709
H        6.02799032      -1.00995528      -1.36605456
H        4.57276862       0.08079053      -1.22865822
H        6.25958132       0.98041660       3.18043874
H        6.96558764       2.04023997       1.92921285
H        5.47836110       2.51413381       2.77505009
20
Properties=species:S:1:pos:R:3 energy=-1580.9185152251466 pbc="F F F"
O        1.27361609      -1.52125881      -0.48669994
C        2.50381994      -0.56516730      -0.06146848
C        2.12277782      -1.57277425       0.80748902
C        3.29515237      -1.49768475      -1.10132537
C        5.39868872      -0.46024237      -0.71266347
C        5.83544381      -0.07409003       0.52420827
H        6.71896845      -0.51116366       0.99954423
C        5.19860591       1.01542307       1.29358857
O        4.06231569       1.42020201       1.10623937
C        6.02955346       1.67273284       2.35207481
H        3.10397202       0.32554626       0.11199915
H        2.56523126      -2.11656998       1.58143102
H        1.08287970      -1.58255413       0.97982687
H        4.06041748      -2.21107146      -1.21008202
H        2.75777866      -1.33363224      -2.00330852
H        6.05885332      -1.02671030      -1.35320975
H        4.59444219       0.05318669      -1.22499295
H        6.27263677       0.99606982       3.18033051
H        6.95440343       2.06551927       1.92357414
H        5.46244890       2.51393332       2.77512755
20
Properties=species:S:1:pos:R:3 energy=-1581.3519190034021 pbc="F F F"
O        1.31616976      -1.58202320      -0.49524719
C        2.53501998      -0.58708192      -0.05883234
C        2.08832506      -1.56614939       0.81947198
C        3.25161932      -1.48350642      -1.12274513
C        5.43327841      -0.46415327      -0.70650766
C        5.85960921      -0.06858601       0.52637878
H        6.75173648      -0.48698730       1.00114327
C        5.20612062       1.00930144       1.29750296
O        4.06277415       1.39602495       1.11635736
C        6.02784895       1.68246217       2.35180172
H        3.14417917       0.28926977       0.12938733
H        2.52009915      -2.14068932       1.58415974
H        1.04631524      -1.52459901       0.99741018
H        4.02259458      -2.18347171      -1.25759408
H        2.70529393      -1.29778632      -2.01288087
H        6.09018757      -1.04313403      -1.34019479
H        4.61638357       0.02471714      -1.22055357
H        6.28552134       1.01203430       3.17994389
H        6.94257400       2.09065856       1.91762791
H        5.44635552       2.51339357       2.77505351
20
Properties=species:S:1:pos:R:3 energy=-1581.7209182454144 pbc="F F F"
O        1.35973559      -1.64197462      -0.50318616
C        2.56539574      -0.60990872      -0.05563974
C        2.05470291      -1.55859918       0.82973670
C        3.20744353      -1.46914282      -1.14347801
C        5.46782796      -0.46864447      -0.70009578
C        5.88389032      -0.06306425       0.52864268
H        6.78440646      -0.46238855       1.00248658
C        5.21373081       1.00292198       1.30135576
O        4.06354498       1.37112256       1.12642567
C        6.02586513       1.69211688       2.35130063
H        3.18354405       0.25130024       0.14779638
H        2.47443884      -2.16247079       1.58577454
H        1.01295456      -1.46645862       1.01318266
H        3.98355600      -2.15568839      -1.30448241
H        2.65200821      -1.26206454      -2.02125854
H        6.12195678      -1.05921235      -1.32702287
H        4.63857892      -0.00458545      -1.21533740
H        6.29821795       1.02829543       3.17927456
H        6.93010832       2.11562688       1.91137929
H        5.43009896       2.51251278       2.77482847
20
Properties=species:S:1:pos:R:3 energy=-1582.0189994383486 pbc="F F F"
O        1.40431541      -1.70098744      -0.51053994
C        2.59491057      -0.63363648      -0.05191601
C        2.02197721      -1.55014384       0.83827604
C        3.16265707      -1.45459375      -1.16349213
C        5.50230005      -0.47370608      -0.69342532
C        5.90825495      -0.05753381       0.53099217
H        6.81693262      -0.43739186       1.00356391
C        5.22142339       0.99628976       1.30514327
O        4.06463835       1.34551245       1.13643249
C        6.02359984       1.70168175       2.35056813
H        3.22197741       0.21167705       0.16720707
H        2.42832656      -2.18188227       1.58627091
H        0.98283307      -1.40822518       1.02715196
H        3.94332583      -2.12776786      -1.35066931
H        2.59797249      -1.22649994      -2.02843592
H        6.15412465      -1.07493113      -1.31370721
H        4.66101440      -0.03468846      -1.20934172
H        6.31070951       1.04483861       3.17831820
H        6.91701538       2.14039327       1.90483342
H        5.41369724       2.51128920       2.77445298
20
Properties=species:S:1:pos:R:3 energy=-1582.2456513225732 pbc="F F F"
O        1.44991105      -1.75893603      -0.51733161
C        2.62352784      -0.65825397      -0.04768646
C        1.99021384      -1.54080354       0.84508285
C        3.11729203      -1.43985900      -1.18275557
C        5.53665735      -0.47932817      -0.68649378
C        5.93267088      -0.05200377       0.53341944
H        6.84926918      -0.41202164       1.00436506
C        5.22918527       0.98940981       1.30886184
O        4.06606440       1.31921221       1.14636601
C        6.02105092       1.71114154       2.34960084
H        3.25939003       0.17043958       0.18760020
H        2.38183854      -2.19889166       1.58564436
H        0.95598615      -1.34999095       1.03932575
H        3.90192821      -2.09975644      -1.39607708
H        2.54323773      -1.19112555      -2.03440743
H        6.18665490      -1.09027622      -1.30026101
H        4.68367618      -0.06555925      -1.20256383
H        6.32297896       1.06164921       3.17707048
H        6.90330415       2.16492676       1.89799541
H        5.39716837       2.50972106       2.77392754
20
Properties=species:S:1:pos:R:3 energy=-1582.7385113755174 pbc="F F F"
O        1.49652435      -1.81569475      -0.52358428
C        2.65121095      -0.68374995      -0.04297643
C        1.95947866      -1.53059848       0.85014998
C        3.07138048      -1.42493836      -1.20123646
C        5.57086254      -0.48550086      -0.67929865
C        5.95710594      -0.04648320       0.53591669
H        6.88137034      -0.38630234       1.00487978
C        5.23700336       0.98228721       1.31250776
O        4.06783329       1.29223945       1.15621441
C        6.01821621       1.72048103       2.34839537
H        3.29569267       0.12762720       0.20895654
H        2.33505099      -2.21346683       1.58389037
H        0.93244923      -1.29184817       1.04971166
H        3.85938723      -2.07170047      -1.44062800
H        2.48785490      -1.15597442      -2.03916746
H        6.21951125      -1.10523350      -1.28669747
H        4.70655043      -0.09716517      -1.19500102
H        6.33500921       1.07871264       3.17552711
H        6.88898360       2.18919639       1.89087041
H        5.38053039       2.50780660       2.77325267
20
Properties=species:S:1:pos:R:3 energy=-1583.2709405336323 pbc="F F F"
O        1.54415712      -1.87113797      -0.52932102
C        2.67792324      -0.71011322      -0.03781123
C        1.92983753      -1.51954886       0.85347028
C        3.02495450      -1.40983163      -1.21890290
C        5.60487829      -0.49221424      -0.67183742
C        5.98152792      -0.04098117       0.53847612
H        6.91319034      -0.36025839       1.00509787
C        5.24486454       0.97492699       1.31607737
O        4.06995518       1.26461176       1.16596588
C        6.01509354       1.72968498       2.34694832
H        3.33079610       0.08327928       0.23125690
H        2.28804015      -2.22557569       1.58100446
H        0.91225768      -1.23388908       1.05831736
H        3.81572703      -2.04364629      -1.48424438
H        2.43187496      -1.12107957      -2.04271042
H        6.25265741      -1.11978884      -1.27302979
H        4.72962330      -0.12947358      -1.18665059
H        6.34678318       1.09601428       3.17368375
H        6.87406271       2.21317121       1.88346355
H        5.36380129       2.50554404       2.77242890
20
Properties=species:S:1:pos:R:3 energy=-1583.6757856760778 pbc="F F F"
O        1.59281121      -1.92514005      -0.53456493
C        2.70362811      -0.73733254      -0.03221619
C        1.90135631      -1.50767488       0.85503660
C        2.97804617      -1.39453861      -1.23572299
C        5.63866728      -0.49945841      -0.66410760
C        6.00590463      -0.03550676       0.54108993
H        6.94468338      -0.33391421       1.00500910
C        5.25275573       0.96733421       1.31956699
O        4.07244022       1.23634674       1.17560859
C        6.01168074       1.73873817       2.34525629
H        3.36461109       0.03743521       0.25448206
H        2.24088223      -2.23518611       1.57698212
H        0.89544691      -1.17620593       1.06515049
H        3.77097170      -2.01564024      -1.52684852
H        2.37534889      -1.08647404      -2.04503070
H        6.28605708      -1.13392810      -1.25927118
H        4.75288095      -0.16245184      -1.17750983
H        6.35828380       1.11353952       3.17153609
H        6.85855047       2.23682024       1.87577995
H        5.34699910       2.50293163       2.77145674
20
Properties=species:S:1:pos:R:3 energy=-1583.9799560147615 pbc="F F F"
O        1.64248843      -1.97757536      -0.53933909
C        2.72828891      -0.76539668      -0.02621663
C        1.87410087      -1.49499671       0.85484179
C        2.93068755      -1.37905909      -1.25166484
C        5.67219218      -0.50722346      -0.65610668
C        6.03020386      -0.03006902       0.54375030
H        6.97580370      -0.30729424       1.00460325
C        5.26066384       0.95951392       1.32297293
O        4.07529857       1.20746199       1.18513074
C        6.00797566       1.74762535       2.34331590
H        3.39704841      -0.00986564       0.27861279
H        2.19365347      -2.24226599       1.57181884
H        0.88205233      -1.11889096       1.07021872
H        3.72514536      -1.98772865      -1.56836271
H        2.31832765      -1.05219086      -2.04612271
H        6.31967400      -1.14763715      -1.24543485
H        4.77630955      -0.19606730      -1.16757604
H        6.36949398       1.13127375       3.16907982
H        6.84245584       2.26011252       1.86782475
H        5.33014183       2.49996759       2.77033673
20