20
Properties=species:S:1:pos:R:3 energy=-1578.730005061826 pbc="F F F"
O        1.07596618      -1.20963959      -0.43403142
C        2.33673724      -0.46966980      -0.06541603
C        2.30519530      -1.59131176       0.72205084
C        3.50205387      -1.56580447      -0.98503973
C        5.22644466      -0.44973897      -0.73968914
C        5.71747932      -0.10102651       0.51502970
H        6.55525997      -0.62485464       0.98807064
C        5.16292310       1.04198705       1.27322144
O        4.06435355       1.52959136       1.05531791
C        6.03396217       1.62350008       2.35013888
H        2.89342519       0.48015510       0.04104352
H        2.78030099      -1.96202909       1.55123609
H        1.31251976      -1.86632189       0.86448011
H        4.23045265      -2.34469503      -0.96588532
H        3.00640384      -1.51356787      -1.93772248
H        5.90997644      -0.93990499      -1.41546818
H        4.48902920       0.18189611      -1.23563246
H        6.20599225       0.92120851       3.17817400
H        7.00369268       1.93834198       1.94858989
H        5.53983765       2.51157843       2.77321476
