20
Properties=species:S:1:pos:R:3:momenta:R:3:forces:R:3 pbc="F F F"
O        3.63677953       1.40256380       3.84000464       0.86037460      -0.10386067      -0.85709495       0.00298711      -0.04062141      -0.02823417
C        4.74422553       1.00723258       3.55786982      -0.60473689       1.16500853       0.47679013      -0.06141080       0.09470194      -0.00884674
C        5.19887870       0.68453059       2.14937100      -0.53180292       0.56553929       1.32274350       0.00107090      -0.08945045      -0.01565507
C        4.22980402       1.02672306       1.09697805       0.31409743       3.36102894       0.24249352       0.01453928       0.46076054       0.27115728
C        3.86336674      -1.14375463      -0.19234756      -0.01724487       0.22183798      -0.59233876       0.08891173      -0.57914718      -0.15121918
C        4.02271665      -2.19440393       0.62080060      -0.23129454      -0.88101230      -0.98341660       0.03338811      -0.04033606      -0.07520830
H        3.18495904      -2.68155409       1.12050306       0.15994133       0.05776454       0.09046439       0.05168107       0.05966623       0.01504232
C        5.37611390      -2.76444526       0.87391045      -0.34280602      -0.13068315      -1.43166944       0.07211946      -0.01154895       0.07964979
O        6.38395057      -2.30072618       0.37358033       1.36439271       1.28715590      -1.85885377      -0.13153738      -0.01999833       0.01893211
C        5.45985122      -3.91696514       1.83751162       0.17343435       0.40917737       0.36233940      -0.03086095       0.00734749       0.05585280
H        5.51299299       0.85809453       4.33474563       0.46446968       0.40432894      -0.23203786       0.01691875      -0.02141549      -0.01507097
H        6.18824014       1.15212607       1.95899386      -0.51518667       0.35622027      -0.10391226       0.04311876       0.07252797      -0.02315745
H        5.41405867      -0.41222881       2.09021602       0.44126354      -0.31380597       0.42451058       0.03889547      -0.03412564      -0.00976415
H        3.19229245       1.13879941       1.34862330       0.02625065      -0.32530658       0.01541465       0.00861491      -0.03866267      -0.00924939
H        4.55205035       1.31611026       0.11951558      -0.20502756       0.14036360       0.20240846       0.03695808       0.01379980       0.05640775
H        2.90576681      -0.70853129      -0.42489236       0.29203538       0.44989007       0.57673225      -0.13277988       0.05638234      -0.00588483
H        4.70850374      -0.70546797      -0.72209784       0.15135161       0.44012205       0.02316912      -0.00365860       0.03632102      -0.03404105
H        4.50162422      -4.40951693       2.03874397      -0.13902321      -0.04129908      -0.12138761       0.02946774       0.01043595      -0.05656506
H        6.16778583      -4.68781787       1.48679012      -0.36690916       0.17757145       0.33863678      -0.06497851       0.09631876      -0.02116079
H        5.85409992      -3.56648355       2.80574927      -0.03325891      -0.27760782      -0.15335660      -0.01344526      -0.03295585      -0.04298489
