24
Properties=species:S:1:pos:R:3 energy=-2749.5966196006257 pbc="F F F"
O       -2.48711800       1.96905600       4.14409700
C       -1.87195200       1.93742000       3.12597500
C       -2.14936500       1.42628000       1.76008600
C       -3.54387300       1.82796100       1.27065900
C       -3.62254600       3.32083200       0.92887200
C       -5.02945500       3.74358500       0.49637500
H       -5.10153200       4.84753900       0.35106000
C       -5.47696000       3.04734200      -0.80619000
O       -4.77303100       3.11049300      -1.78764800
C       -6.79072200       2.34405500      -0.76732300
H       -6.95118100       4.58140000       2.52509900
H       -1.36108300       1.78007800       1.04828400
H       -2.04916500       0.31621700       1.76357700
H       -3.80017800       1.22172600       0.37683400
H       -4.30676500       1.57710500       2.04008000
H       -3.31350200       3.93053100       1.80211300
H       -2.91346800       3.56709800       0.10717900
H       -7.58677900       2.99932900      -0.37241100
H       -7.09563100       1.98710200      -1.76021600
H       -6.76224800       1.48109600      -0.08473900
O       -5.88287700       3.35605500       1.60596600
O       -6.99095300       4.25283500       1.57666700
O        0.21268000       2.61905300       2.33868100
O       -0.46884600       2.56445300       3.31923000
24
Properties=species:S:1:pos:R:3 energy=-2749.593044864215 pbc="F F F"
O       -2.47863690       1.99288003       4.14111484
C       -1.87460885       1.94608661       3.11922288
C       -2.15205706       1.42089584       1.76042211
C       -3.54141114       1.81911241       1.25754356
C       -3.63597247       3.31733860       0.94778438
C       -5.03508390       3.74307552       0.49706087
H       -5.09803508       4.84754236       0.34931656
C       -5.47572728       3.04721442      -0.80684075
O       -4.77118783       3.11435542      -1.78735248
C       -6.78768202       2.34087989      -0.77179895
H       -6.94541642       4.59717687       2.52620849
H       -1.35794000       1.76003299       1.04906647
H       -2.05683391       0.31163927       1.78221017
H       -3.77515203       1.23012431       0.34793439
H       -4.31259557       1.54326303       2.00864236
H       -3.35497302       3.90511982       1.84516959
H       -2.90851843       3.59019537       0.15394525
H       -7.58356829       2.98600939      -0.35976280
H       -7.09986310       2.00049203      -1.76784284
H       -6.75105507       1.46631500      -0.10662465
O       -5.90180527       3.35988866       1.59878321
O       -6.99094352       4.27763771       1.57549894
O        0.21982083       2.64297071       2.32854792
O       -0.44730365       2.54839471       3.31405747
24
Properties=species:S:1:pos:R:3 energy=-2749.58311599615 pbc="F F F"
O       -2.47014980       2.01679250       4.13801412
C       -1.87699538       1.95486549       3.11259385
C       -2.15474208       1.41550530       1.76112111
C       -3.53884486       1.81056619       1.24463746
C       -3.64957496       3.31337519       0.96683562
C       -5.04060150       3.74249943       0.49786643
H       -5.09420678       4.84744107       0.34786111
C       -5.47452439       3.04715054      -0.80748388
O       -4.76924209       3.11828847      -1.78696108
C       -6.78463556       2.33766078      -0.77628243
H       -6.93948966       4.61302780       2.52724006
H       -1.35487642       1.73991064       1.05032791
H       -2.06491946       0.30724187       1.80086191
H       -3.74983963       1.23956076       0.31992111
H       -4.31771260       1.50989028       1.97681018
H       -3.39702851       3.87854460       1.88685297
H       -2.90484486       3.61238918       0.20144480
H       -7.58013115       2.97227550      -0.34719142
H       -7.10420391       2.01398641      -1.77517029
H       -6.73980636       1.45174150      -0.12887998
O       -5.92067907       3.36416163       1.59150283
O       -6.99060180       4.30242840       1.57432095
O        0.22740807       2.66662679       2.31902467
O       -0.42630724       2.53271069       3.30703901
24
Properties=species:S:1:pos:R:3 energy=-2749.5679424593513 pbc="F F F"
O       -2.46166286       2.04078417       4.13479047
C       -1.87912484       1.96373742       3.10609432
C       -2.15742478       1.41011504       1.76217321
C       -3.53617692       1.80232769       1.23194980
C       -3.66335363       3.30894572       0.98600372
C       -5.04600936       3.74185519       0.49879282
H       -5.09005341       4.84722691       0.34669350
C       -5.47334887       3.04714610      -0.80811288
O       -4.76719896       3.12229031      -1.78647069
C       -6.78158036       2.33440023      -0.78077003
H       -6.93340494       4.62894459       2.52819237
H       -1.35190156       1.71972204       1.05205882
H       -2.07341270       0.30302951       1.81952237
H       -3.72427398       1.25001282       0.29281167
H       -4.32211667       1.47701775       1.94460471
H       -3.43962112       3.85084442       1.92715270
H       -2.90244230       3.63365950       0.24963539
H       -7.57646787       2.95813617      -0.33470788
H       -7.10864517       2.02757630      -1.78219210
H       -6.72851073       1.43738767      -0.15149143
O       -5.93948496       3.36886240       1.58413234
O       -6.98992790       4.32719562       1.57313048
O        0.23542644       2.69001284       2.31008994
O       -0.40583256       2.51741060       3.29822337
24
Properties=species:S:1:pos:R:3 energy=-2749.548532943294 pbc="F F F"
O       -2.45318223       2.06484578       4.13143952
C       -1.88101052       1.97268318       3.09973070
C       -2.16010990       1.40473171       1.76356857
C       -3.53341009       1.79440225       1.21948972
C       -3.67730861       3.30405415       1.00526669
C       -5.05130906       3.74114126       0.49984119
H       -5.08558128       4.84689168       0.34581360
C       -5.47219828       3.04719684      -0.80872122
O       -4.76506362       3.12635910      -1.78587818
C       -6.77851413       2.33110085      -0.78525831
H       -6.92716646       4.64491902       2.52906410
H       -1.34902469       1.69947829       1.05424969
H       -2.08230468       0.29900693       1.83818168
H       -3.69848825       1.26145795       0.26662357
H       -4.32580840       1.44467647       1.91204724
H       -3.48270349       3.82205832       1.96605837
H       -2.90130576       3.65398640       0.29847474
H       -7.57257876       2.94360027      -0.32232320
H       -7.11317865       2.04125289      -1.78890204
H       -6.71717702       1.42326569      -0.17444538
O       -5.95820948       3.37397946       1.57667920
O       -6.98892189       4.35192793       1.57192500
O        0.24386063       2.71312048       2.30172239
O       -0.38585539       2.50250408       3.28765933
24
Properties=species:S:1:pos:R:3 energy=-2749.525800898191 pbc="F F F"
O       -2.44471408       2.08896809       4.12795689
C       -1.88266565       1.98168354       3.09350941
C       -2.16280219       1.39936197       1.76529739
C       -3.53054716       1.78679525       1.20726634
C       -3.69144007       3.29870444       1.02460253
C       -5.05650218       3.74035610       0.50101268
H       -5.08079669       4.84642716       0.34522129
C       -5.47107017       3.04729850      -0.80930237
O       -4.76284124       3.13049300      -1.78518043
C       -6.77543459       2.32776519      -0.78974385
H       -6.92077842       4.66094291       2.52985393
H       -1.34625509       1.67919050       1.05689101
H       -2.09158649       0.29517887       1.85682998
H       -3.67251562       1.27387364       0.24137429
H       -4.32878837       1.41289746       1.87915903
H       -3.52622827       3.79222538       2.00355958
H       -2.90143024       3.67334994       0.34792060
H       -7.56846410       2.92867665      -0.31004839
H       -7.11779610       2.05500736      -1.79529386
H       -6.70581410       1.40938777      -0.19772824
O       -5.97683918       3.37950130       1.56915089
O       -6.98758383       4.37661386       1.57070195
O        0.25269533       2.73594133       2.29390069
O       -0.36635152       2.48800079       3.27539565
24
Properties=species:S:1:pos:R:3 energy=-2749.500574242168 pbc="F F F"
O       -2.43626457       2.11314185       4.12433820
C       -1.88410352       1.99071929       3.08743684
C       -2.16550637       1.39401247       1.76734986
C       -3.52759088       1.77951202       1.19528879
C       -3.70574816       3.29290054       1.04398925
C       -5.06159027       3.73949816       0.50230843
H       -5.07570595       4.84582516       0.34491643
C       -5.46996209       3.04744683      -0.80984980
O       -4.76053701       3.13469017      -1.78437432
C       -6.77233947       2.32439585      -0.79422321
H       -6.91424504       4.67700804       2.53056052
H       -1.34360204       1.65886976       1.05997327
H       -2.10124917       0.29155004       1.87545740
H       -3.64638927       1.28723735       0.21708133
H       -4.33105720       1.38171174       1.84596135
H       -3.57014809       3.76138464       2.03964589
H       -2.90281077       3.69173020       0.39793069
H       -7.56412418       2.91337416      -0.29789447
H       -7.12248926       2.06883089      -1.80136131
H       -6.69443080       1.39576608      -0.22132642
O       -5.99536061       3.38541642       1.56155489
O       -6.98591379       4.40124198       1.56945879
O        0.26191523       2.75846699       2.28660353
O       -0.34729673       2.47391037       3.26148108
24
Properties=species:S:1:pos:R:3 energy=-2749.473598687247 pbc="F F F"
O       -2.42783986       2.13735780       4.12057908
C       -1.88533738       1.99977120       3.08151941
C       -2.16822719       1.38868986       1.76971616
C       -3.52454404       1.77255792       1.18356618
C       -3.72023302       3.28664641       1.06340484
C       -5.06657490       3.73856592       0.50372957
H       -5.07031537       4.84507745       0.34489888
C       -5.46887159       3.04763757      -0.81035699
O       -4.75815610       3.13894878      -1.78345674
C       -6.76922649       2.32099540      -0.79869297
H       -6.90757051       4.69310621       2.53118255
H       -1.34107482       1.63852718       1.06348697
H       -2.11128379       0.28812519       1.89405409
H       -3.62014236       1.30152655       0.19376220
H       -4.33261549       1.35115033       1.81247546
H       -3.61441561       3.72957518       2.07430691
H       -2.90544235       3.70910726       0.44846276
H       -7.55955929       2.89770167      -0.28587247
H       -7.12724990       2.08271466      -1.80709817
H       -6.68303600       1.38241280      -0.24522634
O       -6.01376033       3.39171330       1.55389865
O       -6.98391184       4.42580082       1.56819297
O        0.27150505       2.78068908       2.27980957
O       -0.32866681       2.46024248       3.24596440
24
Properties=species:S:1:pos:R:3 energy=-2749.4455379914525 pbc="F F F"
O       -2.41944612       2.16160672       4.11667516
C       -1.88638049       2.00882005       3.07576353
C       -2.17096938       1.38340080       1.77238648
C       -3.52140940       1.76593830       1.17210765
C       -3.73489481       3.27994599       1.08282731
C       -5.07145766       3.73755782       0.50527727
H       -5.06463126       4.84417584       0.34516852
C       -5.46779623       3.04786645      -0.81081742
O       -4.75570369       3.14326699      -1.78242457
C       -6.76609337       2.31756642      -0.80314970
H       -6.90075905       4.70922922       2.53171869
H       -1.33868271       1.61817385       1.06742260
H       -2.12168141       0.28490903       1.91261019
H       -3.59380809       1.31671871       0.17143439
H       -4.33346383       1.32124425       1.77872264
H       -3.65898347       3.69683604       2.10753221
H       -2.90932000       3.72546117       0.49947454
H       -7.55476973       2.88166801      -0.27399339
H       -7.13206977       2.09664986      -1.81249817
H       -6.67163854       1.36934013      -0.26941438
O       -6.03202488       3.39838043       1.54618966
O       -6.98157804       4.45027895       1.56690196
O        0.28144946       2.80259922       2.27349749
O       -0.31043755       2.44700676       3.22889436
24
Properties=species:S:1:pos:R:3 energy=-2749.4169760583136 pbc="F F F"
O       -2.41108950       2.18587933       4.11262205
C       -1.88724612       2.01784662       3.07017561
C       -2.17373769       1.37815194       1.77535100
C       -3.51818974       1.75965851       1.16092232
C       -3.74973368       3.27280325       1.10223465
C       -5.07624010       3.73647233       0.50695264
H       -5.05865993       4.84311211       0.34572521
C       -5.46673355       3.04812922      -0.81122455
O       -4.75318497       3.14764295      -1.78127467
C       -6.76293783       2.31411150      -0.80758997
H       -6.89381485       4.72536887       2.53216761
H       -1.33643499       1.59782087       1.07177065
H       -2.13243309       0.28190631       1.93111582
H       -3.56741961       1.33279130       0.15011539
H       -4.33360282       1.29202452       1.74472415
H       -3.70380431       3.66320629       2.13931138
H       -2.91443872       3.74077202       0.55092375
H       -7.54975579       2.86528206      -0.26226825
H       -7.13694061       2.11062765      -1.81755508
H       -6.66024727       1.35656024      -0.29387697
O       -6.05014082       3.40540631       1.53843539
O       -6.97891247       4.47466491       1.56558319
O        0.29173317       2.82418901       2.26764596
O       -0.29258473       2.43421288       3.21031973
24
Properties=species:S:1:pos:R:3 energy=-2749.388418457734 pbc="F F F"
O       -2.40277617       2.21016640       4.10841538
C       -1.88794754       2.02683168       3.06476205
C       -2.17653684       1.37294994       1.77859992
C       -3.51488782       1.75372391       1.15001930
C       -3.76474977       3.26522214       1.12160489
C       -5.08092380       3.73530791       0.50875685
H       -5.05240768       4.84187805       0.34656881
C       -5.46568111       3.04842163      -0.81157187
O       -4.75060510       3.15207483      -1.78000394
C       -6.75975759       2.31063320      -0.81201036
H       -6.88674214       4.74151694       2.53252800
H       -1.33434094       1.57747935       1.07652162
H       -2.14352989       0.27912174       1.94956113
H       -3.54101011       1.34972179       0.12982270
H       -4.33303307       1.26352216       1.71050126
H       -3.74883077       3.62872499       2.16963399
H       -2.92079353       3.75501986       0.60276814
H       -7.54451776       2.84855267      -0.25070808
H       -7.14185419       2.12463922      -1.82226266
H       -6.64887105       1.34408533      -0.31860051
O       -6.06809469       3.41277941       1.53064330
O       -6.97591518       4.49894726       1.56423413
O        0.30234088       2.84545008       2.26223366
O       -0.27508414       2.42187048       3.19028928
24
Properties=species:S:1:pos:R:3 energy=-2749.360296181626 pbc="F F F"
O       -2.39451229       2.23445867       4.10405078
C       -1.88849799       2.03575602       3.05952928
C       -2.17937157       1.36780145       1.78212341
C       -3.51150643       1.74813985       1.13940774
C       -3.77994326       3.25720661       1.14091601
C       -5.08551032       3.73406302       0.51069102
H       -5.04588082       4.84046546       0.34769920
C       -5.46463645       3.04873942      -0.81185284
O       -4.74796927       3.15656079      -1.77860926
C       -6.75655037       2.30713412      -0.81640743
H       -6.87954511       4.75766525       2.53279851
H       -1.33240985       1.55716038       1.08166600
H       -2.15496288       0.27656007       1.96793626
H       -3.51461277       1.36748766       0.11057382
H       -4.33175518       1.23576819       1.67607524
H       -3.79401551       3.59343120       2.19848965
H       -2.92837945       3.76818478       0.65496543
H       -7.53905592       2.83148868      -0.23932388
H       -7.14680225       2.13867575      -1.82661466
H       -6.63751873       1.33192758      -0.34357140
O       -6.08587304       3.42048824       1.52282088
O       -6.97258625       4.52311454       1.56285222
O        0.31325728       2.86637403       2.25723926
O       -0.25791156       2.40998921       3.16885176
24
Properties=species:S:1:pos:R:3 energy=-2749.3329720182965 pbc="F F F"
O       -2.38630403       2.25874691       4.09952387
C       -1.88891076       2.04460040       3.05448368
C       -2.18224663       1.36271313       1.78591168
C       -3.50804833       1.74291168       1.12909674
C       -3.79531427       3.24876063       1.16014602
C       -5.09000124       3.73273612       0.51275631
H       -5.03908566       4.83886613       0.34911624
C       -5.46359713       3.04907832      -0.81206095
O       -4.74528266       3.16109900      -1.77708749
C       -6.75331390       2.30361683      -0.82077776
H       -6.87222796       4.77380559       2.53297782
H       -1.33065098       1.53687507       1.08719428
H       -2.16672312       0.27422603       1.98623135
H       -3.48826075       1.38606638       0.09238624
H       -4.32976975       1.20879362       1.64146736
H       -3.83931116       3.55736397       2.22586792
H       -2.93719148       3.78024685       0.70747337
H       -7.53337058       2.81409897      -0.22812668
H       -7.15177655       2.15272843      -1.83060485
H       -6.62619916       1.32009917      -0.36877605
O       -6.10346243       3.42852129       1.51497559
O       -6.96892573       4.54715530       1.56143494
O        0.32446707       2.88695248       2.25264143
O       -0.24104279       2.39857872       3.14605595
24
Properties=species:S:1:pos:R:3 energy=-2749.3067478779994 pbc="F F F"
O       -2.37815753       2.28302185       4.09483027
C       -1.88919910       2.05334562       3.04963168
C       -2.18516674       1.35769163       1.78995489
C       -3.50451630       1.73804475       1.11909543
C       -3.81086297       3.23988814       1.17927293
C       -5.09439813       3.73132566       0.51495385
H       -5.03202851       4.83707185       0.35081980
C       -5.46256070       3.04943408      -0.81218966
O       -4.74255045       3.16568760      -1.77543553
C       -6.75004590       2.30008390      -0.82511792
H       -6.86479491       4.78992974       2.53306461
H       -1.32907363       1.51663451       1.09309695
H       -2.17880167       0.27212433       2.00443653
H       -3.46198724       1.40543541       0.07527747
H       -4.32707737       1.18262949       1.60669888
H       -3.88467037       3.52056237       2.25175840
H       -2.94722464       3.79118612       0.76024968
H       -7.52746203       2.79639237      -0.21712750
H       -7.15676885       2.16678842      -1.83422697
H       -6.61492121       1.30861229      -0.39420086
O       -6.12084941       3.43686704       1.50711490
O       -6.96493371       4.57105810       1.55997972
O        0.33595494       2.90717705       2.24841885
O       -0.22445360       2.38764867       3.12195059
24
Properties=species:S:1:pos:R:3 energy=-2749.281872482741 pbc="F F F"
O       -2.37007897       2.30727426       4.08996561
C       -1.88937627       2.06197244       3.04497969
C       -2.18813665       1.35274361       1.79424324
C       -3.50091310       1.73354442       1.10941295
C       -3.82658951       3.23059310       1.19827473
C       -5.09870256       3.72983011       0.51728479
H       -5.02471567       4.83507440       0.35280975
C       -5.46152471       3.04980245      -0.81223245
O       -4.73977781       3.17032478      -1.77365026
C       -6.74674408       2.29653793      -0.82942448
H       -6.85725017       4.80602952       2.53305754
H       -1.32768707       1.49644981       1.09936451
H       -2.19118958       0.27025972       2.02254194
H       -3.43582540       1.42557222       0.05926499
H       -4.32367865       1.15730680       1.57179109
H       -3.93004578       3.48306546       2.27615067
H       -2.95847393       3.80098268       0.81325211
H       -7.52133055       2.77837775      -0.20633734
H       -7.16177089       2.18084692      -1.83747479
H       -6.60369371       1.29747913      -0.41983226
O       -6.13802052       3.44551398       1.49924629
O       -6.96061024       4.59481148       1.55848402
O        0.34770559       2.92703933       2.24455019
O       -0.20811978       2.37720870       3.09658447
24
Properties=species:S:1:pos:R:3 energy=-2749.258553618679 pbc="F F F"
O       -2.36207451       2.33149488       4.08492552
C       -1.88945553       2.07046164       3.04053411
C       -2.19116109       1.34787571       1.79876692
C       -3.49724151       1.72941604       1.10005840
C       -3.84249403       3.22087946       1.21712944
C       -5.10291609       3.72824794       0.51975026
H       -5.01715346       4.83286559       0.35508594
C       -5.46048670       3.05017916      -0.81218279
O       -4.73696992       3.17500868      -1.77172854
C       -6.74340617       2.29298149      -0.83369401
H       -6.84959793       4.82209671       2.53295530
H       -1.32650059       1.47633206       1.10598746
H       -2.20387793       0.26863691       2.04053771
H       -3.40980842       1.44645429       0.04436631
H       -4.31957420       1.13285659       1.53676523
H       -3.97539004       3.44491230       2.29903432
H       -2.97093437       3.80961660       0.86643838
H       -7.51497644       2.76006397      -0.19576724
H       -7.16677443       2.19489510      -1.84034206
H       -6.59252552       1.28671186      -0.44565663
O       -6.15496232       3.45445060       1.49137722
O       -6.95595539       4.61840399       1.55694530
O        0.35970372       2.94653096       2.24101412
O       -0.19201712       2.36726847       3.07000633
24
Properties=species:S:1:pos:R:3 energy=-2749.2369559443478 pbc="F F F"
O       -2.35415030       2.35567446       4.07970561
C       -1.88945016       2.07879400       3.03630135
C       -2.19424480       1.34309460       1.80351611
C       -3.49350431       1.72566496       1.09104092
C       -3.85857670       3.21075119       1.23581504
C       -5.10704030       3.72657758       0.52235142
H       -5.00934818       4.83043720       0.35764826
C       -5.45944425       3.05055996      -0.81203416
O       -4.73413197       3.17973746      -1.76966727
C       -6.74002989       2.28941715      -0.83792309
H       -6.84184241       4.83812312       2.53275655
H       -1.32552345       1.45629236       1.11295627
H       -2.21685777       0.26726066       2.05841400
H       -3.38396947       1.46805909       0.03059892
H       -4.31476460       1.10930986       1.50164259
H       -4.02065578       3.40614194       2.32039892
H       -2.98460097       3.81706794       0.91976623
H       -7.50839998       2.74145987      -0.18542820
H       -7.17177123       2.20892414      -1.84282254
H       -6.58142551       1.27632269      -0.47166038
O       -6.17166135       3.46366540       1.48351518
O       -6.95096923       4.64182419       1.55536101
O        0.37193402       2.96564354       2.23778932
O       -0.17612141       2.35783762       3.04226495
24
Properties=species:S:1:pos:R:3 energy=-2749.217217545625 pbc="F F F"
O       -2.34631252       2.37980376       4.07430151
C       -1.88937341       2.08695031       3.03228782
C       -2.19739251       1.33840692       1.80848100
C       -3.48970425       1.72229653       1.08236964
C       -3.87483765       3.20021223       1.25430955
C       -5.11107675       3.72481752       0.52508939
H       -5.00130614       4.82778102       0.36049657
C       -5.45839488       3.05094058      -0.81178003
O       -4.73126912       3.18450930      -1.76746333
C       -6.73661297       2.28584751      -0.84210828
H       -6.83398780       4.85410054       2.53245996
H       -1.32476495       1.43634182       1.12026145
H       -2.23012017       0.26613567       2.07616092
H       -3.35834173       1.49036408       0.01798032
H       -4.30925047       1.08669764       1.46644442
H       -4.06579567       3.36679345       2.34023407
H       -2.99946875       3.82331678       0.97319339
H       -7.50160148       2.72257432      -0.17533125
H       -7.17675303       2.22292523      -1.84490998
H       -6.57040251       1.26632378      -0.49782994
O       -6.18810417       3.47314687       1.47566763
O       -6.94565182       4.66506063       1.55372860
O        0.38438119       2.98436868       2.23485447
O       -0.16040843       2.34892582       3.01340908
24
Properties=species:S:1:pos:R:3 energy=-2749.199450402455 pbc="F F F"
O       -2.33856732       2.40387353       4.06870885
C       -1.88923854       2.09491133       3.02849994
C       -2.20060897       1.33381934       1.81365178
C       -3.48584413       1.71931610       1.07405367
C       -3.89127704       3.18926654       1.27259097
C       -5.11502702       3.72296621       0.52796533
H       -4.99303364       4.82488885       0.36363072
C       -5.45733616       3.05131678      -0.81141388
O       -4.72838657       3.18932235      -1.76511358
C       -6.73315312       2.28227513      -0.84624617
H       -6.82603833       4.87002076       2.53206421
H       -1.32423436       1.41649154       1.12789350
H       -2.24365619       0.26526669       2.09376863
H       -3.33295836       1.51334675       0.00652800
H       -4.30303240       1.06505095       1.43119201
H       -4.11076233       3.32690588       2.35852934
H       -3.01553271       3.82834319       1.02667760
H       -7.49458122       2.70341616      -0.16548739
H       -7.18171159       2.23688953      -1.84659815
H       -6.55946539       1.25672734      -0.52415169
O       -6.20427733       3.48288349       1.46784205
O       -6.94000324       4.68810185       1.55204553
O        0.39702993       3.00269801       2.23218823
O       -0.14485397       2.34054270       2.98348749
24
Properties=species:S:1:pos:R:3 energy=-2749.1837467828577 pbc="F F F"
O       -2.33092086       2.42787452       4.06292325
C       -1.88905883       2.10265785       3.02494410
C       -2.20389891       1.32933851       1.81901863
C       -3.48192670       1.71672904       1.06610213
C       -3.90789503       3.17791808       1.29063730
C       -5.11889268       3.72102210       0.53098038
H       -4.98453700       4.82175248       0.36705060
C       -5.45626564       3.05168429      -0.81092918
O       -4.72548949       3.19417477      -1.76261492
C       -6.72964806       2.27870260      -0.85033331
H       -6.81799818       4.88587559       2.53156798
H       -1.32394097       1.39675261       1.13584289
H       -2.25745688       0.26465845       2.11122726
H       -3.30785256       1.53698455      -0.00374054
H       -4.29611099       1.04440080       1.39590661
H       -4.15550841       3.28651830       2.37527433
H       -3.03278786       3.83212723       1.08017659
H       -7.48733950       2.68399425      -0.15590766
H       -7.18663866       2.25080824      -1.84788080
H       -6.54862299       1.24754553      -0.55061205
O       -6.22016737       3.49286375       1.46004590
O       -6.93402354       4.71093641       1.55030926
O        0.40986493       3.02062313       2.22976928
O       -0.12943380       2.33269792       2.95254895
24
Properties=species:S:1:pos:R:3 energy=-2749.1701826008266 pbc="F F F"
O       -2.32337931       2.45179748       4.05694033
C       -1.88884752       2.11017064       3.02162673
C       -2.20726707       1.32497107       1.82457174
C       -3.47795474       1.71454068       1.05852416
C       -3.92469176       3.16617080       1.30842655
C       -5.12267529       3.71898366       0.53413567
H       -4.97582253       4.81836369       0.37075607
C       -5.45518086       3.05203885      -0.81031940
O       -4.72258305       3.19906472      -1.75996422
C       -6.72609553       2.27513250      -0.85436629
H       -6.80987158       4.90165682       2.53096993
H       -1.32389404       1.37713613       1.14410013
H       -2.27151332       0.26431566       2.12852695
H       -3.28305748       1.56125496      -0.01280780
H       -4.28848685       1.02477823       1.36060950
H       -4.19998656       3.24566976       2.39045861
H       -3.05122923       3.83464899       1.13364809
H       -7.47987660       2.66431746      -0.14660306
H       -7.19152600       2.26467253      -1.84875169
H       -6.53788417       1.23879056      -0.57719742
O       -6.23576086       3.50307615       1.45228666
O       -6.92771280       4.73355286       1.54851723
O        0.42287089       3.03813565       2.22757630
O       -0.11412373       2.32540114       2.92064222
24
Properties=species:S:1:pos:R:3 energy=-2749.1588201731047 pbc="F F F"
O       -2.31594882       2.47563316       4.05075572
C       -1.88861789       2.11743048       3.01855422
C       -2.21071818       1.32072370       1.83030129
C       -3.47393103       1.71275639       1.05132888
C       -3.94166739       3.15402865       1.32593671
C       -5.12637643       3.71684935       0.53743236
H       -4.96689652       4.81471429       0.37474700
C       -5.45407938       3.05237621      -0.80957802
O       -4.71967244       3.20399037      -1.75715837
C       -6.72249323       2.27156741      -0.85834167
H       -6.80166272       4.91735624       2.53026874
H       -1.32410287       1.35765321       1.15265571
H       -2.28581656       0.26424307       2.14565784
H       -3.25860632       1.58613545      -0.02065629
H       -4.28016058       1.00621424       1.32532194
H       -4.24414943       3.20439933       2.40407178
H       -3.07085182       3.83588852       1.18704985
H       -7.47219282       2.64439463      -0.13758461
H       -7.19636535       2.27847358      -1.84920458
H       -6.52725779       1.23047459      -0.60389421
O       -6.25104433       3.51350918       1.44457180
O       -6.92107108       4.75593974       1.54666691