 Entering Gaussian System, Link 0=g09
 Initial command:
 /apps/applications/gaussian/G09.D01/2/default/g09/l1.exe "/nobackup/chmrsh/Scratch/Gau-119811.inp" -scrdir="/nobackup/chmrsh/Scratch/"
 Entering Link 1 = /apps/applications/gaussian/G09.D01/2/default/g09/l1.exe PID=    119812.
  
 Copyright (c) 1988,1990,1992,1993,1995,1998,2003,2009,2013,
            Gaussian, Inc.  All Rights Reserved.
  
 This is part of the Gaussian(R) 09 program.  It is based on
 the Gaussian(R) 03 system (copyright 2003, Gaussian, Inc.),
 the Gaussian(R) 98 system (copyright 1998, Gaussian, Inc.),
 the Gaussian(R) 94 system (copyright 1995, Gaussian, Inc.),
 the Gaussian 92(TM) system (copyright 1992, Gaussian, Inc.),
 the Gaussian 90(TM) system (copyright 1990, Gaussian, Inc.),
 the Gaussian 88(TM) system (copyright 1988, Gaussian, Inc.),
 the Gaussian 86(TM) system (copyright 1986, Carnegie Mellon
 University), and the Gaussian 82(TM) system (copyright 1983,
 Carnegie Mellon University). Gaussian is a federally registered
 trademark of Gaussian, Inc.
  
 This software contains proprietary and confidential information,
 including trade secrets, belonging to Gaussian, Inc.
  
 This software is provided under written license and may be
 used, copied, transmitted, or stored only in accord with that
 written license.
  
 The following legend is applicable only to US Government
 contracts under FAR:
  
                    RESTRICTED RIGHTS LEGEND
  
 Use, reproduction and disclosure by the US Government is
 subject to restrictions as set forth in subparagraphs (a)
 and (c) of the Commercial Computer Software - Restricted
 Rights clause in FAR 52.227-19.
  
 Gaussian, Inc.
 340 Quinnipiac St., Bldg. 40, Wallingford CT 06492
  
  
 ---------------------------------------------------------------
 Warning -- This program may not be used in any manner that
 competes with the business of Gaussian, Inc. or will provide
 assistance to any competitor of Gaussian, Inc.  The licensee
 of this program is prohibited from giving any competitor of
 Gaussian, Inc. access to this program.  By using this program,
 the user acknowledges that Gaussian, Inc. is engaged in the
 business of creating and licensing software in the field of
 computational chemistry and represents and warrants to the
 licensee that it is not a competitor of Gaussian, Inc. and that
 it will not use this program in any manner prohibited above.
 ---------------------------------------------------------------
  

 Cite this work as:
 Gaussian 09, Revision D.01,
 M. J. Frisch, G. W. Trucks, H. B. Schlegel, G. E. Scuseria, 
 M. A. Robb, J. R. Cheeseman, G. Scalmani, V. Barone, B. Mennucci, 
 G. A. Petersson, H. Nakatsuji, M. Caricato, X. Li, H. P. Hratchian, 
 A. F. Izmaylov, J. Bloino, G. Zheng, J. L. Sonnenberg, M. Hada, 
 M. Ehara, K. Toyota, R. Fukuda, J. Hasegawa, M. Ishida, T. Nakajima, 
 Y. Honda, O. Kitao, H. Nakai, T. Vreven, J. A. Montgomery, Jr., 
 J. E. Peralta, F. Ogliaro, M. Bearpark, J. J. Heyd, E. Brothers, 
 K. N. Kudin, V. N. Staroverov, T. Keith, R. Kobayashi, J. Normand, 
 K. Raghavachari, A. Rendell, J. C. Burant, S. S. Iyengar, J. Tomasi, 
 M. Cossi, N. Rega, J. M. Millam, M. Klene, J. E. Knox, J. B. Cross, 
 V. Bakken, C. Adamo, J. Jaramillo, R. Gomperts, R. E. Stratmann, 
 O. Yazyev, A. J. Austin, R. Cammi, C. Pomelli, J. W. Ochterski, 
 R. L. Martin, K. Morokuma, V. G. Zakrzewski, G. A. Voth, 
 P. Salvador, J. J. Dannenberg, S. Dapprich, A. D. Daniels, 
 O. Farkas, J. B. Foresman, J. V. Ortiz, J. Cioslowski, 
 and D. J. Fox, Gaussian, Inc., Wallingford CT, 2013.
 
 ******************************************
 Gaussian 09:  ES64L-G09RevD.01 24-Apr-2013
                 4-Feb-2021 
 ******************************************
 %nprocshared=1
 Will use up to    1 processors via shared memory.
 ----------------------------------------------------------------------
 #P upm6 scf=qc opt(calcall, ts, noeigentest, cartesian,maxcycle=100) N
 oSymm, guess=mix
 ----------------------------------------------------------------------
 1/5=1,6=100,10=4,11=1,14=-1,18=10,26=1,38=1/1,3;
 2/12=2,15=1,17=6,18=5,29=2,40=1/2;
 3/5=2,16=1,25=1,41=3900000,71=2,116=2,140=1/1,2,3;
 4/13=-1,35=1/1;
 5/5=2,8=3,35=1,38=5/8;
 8/6=4,10=90,11=11/1;
 11/6=1,8=1,9=11,15=111,16=1,31=1/1,2,10;
 10/6=1,31=1/2;
 6/7=2,8=2,9=2,10=2,18=1,28=1/1;
 7/7=1,10=1,25=1,30=1/1,2,3,16;
 1/5=1,6=100,10=4,11=1,14=-1,18=10,26=1/3(3);
 2/15=1,29=1/2;
 7/7=1,8=1,9=1,25=1,30=1,44=-1/16;
 99/12=1/99;
 2/15=1,29=1/2;
 3/5=2,16=1,25=1,41=3900000,71=2,116=2,135=20,140=1/1,2,3;
 4/5=5,16=3,35=1/1;
 5/5=2,8=3,35=1,38=5/8;
 8/6=4,10=90,11=11/1;
 11/6=1,8=1,9=11,15=111,16=1,31=1/1,2,10;
 10/6=1,31=1/2;
 7/7=1,10=1,25=1,30=1/1,2,3,16;
 1/5=1,6=100,10=4,11=1,14=-1,18=10,26=1/3(-8);
 2/15=1,29=1/2;
 6/7=2,8=2,9=2,10=2,18=1,19=2,28=1/1;
 7/7=1,8=1,9=1,25=1,30=1,44=-1/16;
 99/12=1/99;
 Leave Link    1 at Thu Feb  4 14:28:39 2021, MaxMem=           0 cpu:         0.0
 (Enter /apps/applications/gaussian/G09.D01/2/default/g09/l101.exe)
 ------------------------------
 Gaussian input prepared by ASE
 ------------------------------
 Symbolic Z-matrix:
 Charge =  0 Multiplicity = 2
 O                    -1.72096   2.59688   3.8041 
 C                    -1.71197   2.41256   2.62108 
 C                    -2.42812   1.41706   1.7677 
 C                    -3.9217    1.74849   1.63717 
 C                    -4.15608   3.23523   1.33979 
 C                    -5.44338   3.50671   0.56595 
 H                    -5.6318    4.60644   0.48217 
 C                    -5.46238   2.87412  -0.848 
 O                    -4.47733   2.37547  -1.33448 
 C                    -6.77927   2.97926  -1.54193 
 H                    -6.8341    3.39262   3.00911 
 H                    -1.96456   1.39245   0.74889 
 H                    -2.30822   0.39118   2.17007 
 H                    -4.34215   1.12169   0.82139 
 H                    -4.47209   1.45444   2.5516 
 H                    -4.17279   3.79921   2.29397 
 H                    -3.30055   3.64222   0.75308 
 H                    -6.81966   3.88292  -2.16567 
 H                    -6.9573    2.12799  -2.21373 
 H                    -7.62741   3.03826  -0.83785 
 O                    -6.58843   2.8863    1.22002 
 O                    -7.1029    3.82845   2.14333 
 O                    -0.71343   3.18028   0.72215 
 O                    -0.89191   3.38641   1.90683 
 
 NAtoms=     24 NQM=       24 NQMF=       0 NMMI=      0 NMMIF=      0
                NMic=       0 NMicF=      0.
                    Isotopes and Nuclear Properties:
 (Nuclear quadrupole moments (NQMom) in fm**2, nuclear magnetic moments (NMagM)
  in nuclear magnetons)

  Atom         1           2           3           4           5           6           7           8           9          10
 IAtWgt=          16          12          12          12          12          12           1          12          16          12
 AtmWgt=  15.9949146  12.0000000  12.0000000  12.0000000  12.0000000  12.0000000   1.0078250  12.0000000  15.9949146  12.0000000
 NucSpn=           0           0           0           0           0           0           1           0           0           0
 AtZEff=   0.0000000   0.0000000   0.0000000   0.0000000   0.0000000   0.0000000   0.0000000   0.0000000   0.0000000   0.0000000
 NQMom=    0.0000000   0.0000000   0.0000000   0.0000000   0.0000000   0.0000000   0.0000000   0.0000000   0.0000000   0.0000000
 NMagM=    0.0000000   0.0000000   0.0000000   0.0000000   0.0000000   0.0000000   2.7928460   0.0000000   0.0000000   0.0000000
 AtZNuc=   8.0000000   6.0000000   6.0000000   6.0000000   6.0000000   6.0000000   1.0000000   6.0000000   8.0000000   6.0000000

  Atom        11          12          13          14          15          16          17          18          19          20
 IAtWgt=           1           1           1           1           1           1           1           1           1           1
 AtmWgt=   1.0078250   1.0078250   1.0078250   1.0078250   1.0078250   1.0078250   1.0078250   1.0078250   1.0078250   1.0078250
 NucSpn=           1           1           1           1           1           1           1           1           1           1
 AtZEff=   0.0000000   0.0000000   0.0000000   0.0000000   0.0000000   0.0000000   0.0000000   0.0000000   0.0000000   0.0000000
 NQMom=    0.0000000   0.0000000   0.0000000   0.0000000   0.0000000   0.0000000   0.0000000   0.0000000   0.0000000   0.0000000
 NMagM=    2.7928460   2.7928460   2.7928460   2.7928460   2.7928460   2.7928460   2.7928460   2.7928460   2.7928460   2.7928460
 AtZNuc=   1.0000000   1.0000000   1.0000000   1.0000000   1.0000000   1.0000000   1.0000000   1.0000000   1.0000000   1.0000000

  Atom        21          22          23          24
 IAtWgt=          16          16          16          16
 AtmWgt=  15.9949146  15.9949146  15.9949146  15.9949146
 NucSpn=           0           0           0           0
 AtZEff=   0.0000000   0.0000000   0.0000000   0.0000000
 NQMom=    0.0000000   0.0000000   0.0000000   0.0000000
 NMagM=    0.0000000   0.0000000   0.0000000   0.0000000
 AtZNuc=   8.0000000   8.0000000   8.0000000   8.0000000
 Leave Link  101 at Thu Feb  4 14:28:39 2021, MaxMem=    33554432 cpu:         0.1
 (Enter /apps/applications/gaussian/G09.D01/2/default/g09/l103.exe)

 GradGradGradGradGradGradGradGradGradGradGradGradGradGradGradGradGradGrad
 Berny optimization.
 Initialization pass.
 No Z-matrix variables, so optimization will use Cartesian coordinates.
 Trust Radius=3.00D-01 FncErr=1.00D-07 GrdErr=1.00D-07
 Number of steps in this run=    100 maximum allowed number of steps=    144.
 Search for a saddle point of order  1.
 GradGradGradGradGradGradGradGradGradGradGradGradGradGradGradGradGradGrad

 Leave Link  103 at Thu Feb  4 14:28:39 2021, MaxMem=    33554432 cpu:         0.0
 (Enter /apps/applications/gaussian/G09.D01/2/default/g09/l202.exe)
 ---------------------------------------------------------------------------------------------------
                            Z-MATRIX (ANGSTROMS AND DEGREES)
   CD    Cent   Atom    N1       Length/X        N2       Alpha/Y        N3        Beta/Z          J
 ---------------------------------------------------------------------------------------------------
      1      1  O        0  -1.720962          2.596876          3.804098
      2      2  C        0  -1.711966          2.412558          2.621084
      3      3  C        0  -2.428119          1.417059          1.767696
      4      4  C        0  -3.921696          1.748494          1.637174
      5      5  C        0  -4.156078          3.235232          1.339789
      6      6  C        0  -5.443380          3.506715          0.565951
      7      7  H        0  -5.631801          4.606444          0.482173
      8      8  C        0  -5.462383          2.874118         -0.847999
      9      9  O        0  -4.477331          2.375469         -1.334476
     10     10  C        0  -6.779268          2.979264         -1.541933
     11     11  H        0  -6.834101          3.392615          3.009108
     12     12  H        0  -1.964564          1.392454          0.748886
     13     13  H        0  -2.308216          0.391183          2.170066
     14     14  H        0  -4.342150          1.121686          0.821387
     15     15  H        0  -4.472087          1.454443          2.551598
     16     16  H        0  -4.172793          3.799207          2.293972
     17     17  H        0  -3.300549          3.642218          0.753076
     18     18  H        0  -6.819661          3.882919         -2.165674
     19     19  H        0  -6.957304          2.127995         -2.213731
     20     20  H        0  -7.627407          3.038255         -0.837851
     21     21  O        0  -6.588435          2.886295          1.220015
     22     22  O        0  -7.102905          3.828447          2.143335
     23     23  O        0  -0.713433          3.180276          0.722154
     24     24  O        0  -0.891907          3.386415          1.906831
 ---------------------------------------------------------------------------------------------------
                         Z-Matrix orientation:                         
 ---------------------------------------------------------------------
 Center     Atomic      Atomic             Coordinates (Angstroms)
 Number     Number       Type             X           Y           Z
 ---------------------------------------------------------------------
      1          8           0       -1.720962    2.596876    3.804098
      2          6           0       -1.711966    2.412558    2.621084
      3          6           0       -2.428119    1.417059    1.767696
      4          6           0       -3.921696    1.748494    1.637174
      5          6           0       -4.156078    3.235232    1.339789
      6          6           0       -5.443380    3.506715    0.565951
      7          1           0       -5.631801    4.606444    0.482173
      8          6           0       -5.462383    2.874118   -0.847999
      9          8           0       -4.477331    2.375469   -1.334476
     10          6           0       -6.779268    2.979264   -1.541933
     11          1           0       -6.834101    3.392615    3.009108
     12          1           0       -1.964564    1.392454    0.748886
     13          1           0       -2.308216    0.391183    2.170066
     14          1           0       -4.342150    1.121686    0.821387
     15          1           0       -4.472087    1.454443    2.551598
     16          1           0       -4.172793    3.799207    2.293972
     17          1           0       -3.300549    3.642218    0.753076
     18          1           0       -6.819661    3.882919   -2.165674
     19          1           0       -6.957304    2.127995   -2.213731
     20          1           0       -7.627407    3.038255   -0.837851
     21          8           0       -6.588435    2.886295    1.220015
     22          8           0       -7.102905    3.828447    2.143335
     23          8           0       -0.713433    3.180276    0.722154
     24          8           0       -0.891907    3.386415    1.906831
 ---------------------------------------------------------------------
                    Distance matrix (angstroms):
                    1          2          3          4          5
     1  O    0.000000
     2  C    1.197321   0.000000
     3  C    2.457432   1.494043   0.000000
     4  C    3.202896   2.508379   1.535466   0.000000
     5  C    3.522799   2.879616   2.544543   1.534197   0.000000
     6  C    5.016951   4.398204   3.860395   2.560152   1.526327
     7  H    5.510736   4.975256   4.699821   3.525105   2.189403
     8  C    5.976379   5.129639   4.262821   3.133182   2.573568
     9  O    5.835369   4.826497   3.839439   3.087480   2.827382
    10  C    7.369718   6.582509   5.685651   4.448285   3.905249
    11  H    5.235399   5.229469   4.985640   3.614892   3.159621
    12  H    3.293068   2.146985   1.119582   2.178574   2.923650
    13  H    2.807136   2.155200   1.108468   2.174761   3.491786
    14  H    4.235963   3.438478   2.155519   1.111386   2.184133
    15  H    3.231501   2.922513   2.189453   1.107053   2.177051
    16  H    3.120506   2.843495   2.999246   2.167915   1.108518
    17  H    3.591180   2.743194   2.596521   2.180285   1.114361
    18  H    7.955427   7.152870   6.390422   5.235993   4.449993
    19  H    7.990832   7.139326   6.072125   4.918171   4.658363
    20  H    7.525198   6.881000   6.037362   4.639130   4.102565
    21  O    5.518473   5.095818   4.445991   2.929182   2.460175
    22  O    5.765432   5.594211   5.273472   3.834382   3.111491
    23  O    3.294518   2.278682   2.672497   3.630456   3.498041
    24  O    2.215925   1.459812   2.501533   3.454724   3.316505
                    6          7          8          9         10
     6  C    0.000000
     7  H    1.118895   0.000000
     8  C    1.549127   2.190665   0.000000
     9  O    2.413419   3.100042   1.206498   0.000000
    10  C    2.550682   2.839261   1.492242   2.388833   0.000000
    11  H    2.813564   3.050296   4.126467   5.045361   4.570103
    12  H    4.075012   4.883594   4.120693   3.408917   5.563021
    13  H    4.702018   5.627044   5.022196   4.574305   6.361400
    14  H    2.639378   3.731193   2.666981   2.497597   3.869809
    15  H    3.016292   3.944942   3.814895   3.993731   4.940158
    16  H    2.164717   2.462306   3.520059   3.909655   4.709585
    17  H    2.155249   2.537292   2.797668   2.710598   4.219960
    18  H    3.081794   2.990919   2.143863   2.906854   1.098761
    19  H    3.452458   3.894556   2.157941   2.642839   1.098940
    20  H    2.638198   2.860791   2.171260   3.257130   1.103880
    21  O    1.457351   2.102016   2.354745   3.353077   2.770094
    22  O    2.312071   2.351358   3.542617   4.593468   3.795663
    23  O    4.743770   5.126586   5.011151   4.363985   6.477720
    24  O    4.746402   5.097520   5.361043   4.937949   6.835259
                   11         12         13         14         15
    11  H    0.000000
    12  H    5.729018   0.000000
    13  H    5.495110   1.772115   0.000000
    14  H    4.019088   2.394053   2.547442   0.000000
    15  H    3.089488   3.088897   2.440990   1.766704   0.000000
    16  H    2.785552   3.613312   3.886724   3.060442   2.377786
    17  H    4.199759   2.616546   3.682637   2.728128   3.064889
    18  H    5.197978   6.186197   7.165472   4.762877   5.801832
    19  H    5.375174   5.851971   6.621798   4.130814   5.416487
    20  H    3.943856   6.106897   6.659456   4.149604   4.894167
    21  O    1.875518   4.881978   5.044646   2.884189   2.881361
    22  O    1.005867   5.855006   5.899537   4.086057   3.567040
    23  O    6.537417   2.182281   3.524035   4.173156   4.522482
    24  O    6.043569   2.543090   3.323648   4.267477   4.118971
                   16         17         18         19         20
    16  H    0.000000
    17  H    1.777587   0.000000
    18  H    5.186652   4.578338   0.000000
    19  H    5.555703   4.946379   1.760969   0.000000
    20  H    4.724587   4.649464   1.768905   1.780635   0.000000
    21  O    2.796805   3.405825   3.536893   3.535774   2.310274
    22  O    2.934127   4.052827   4.318652   4.679398   3.128414
    23  O    3.849786   2.628215   6.791117   6.979444   7.089204
    24  O    3.329337   2.682935   7.209027   7.439871   7.281583
                   21         22         23         24
    21  O    0.000000
    22  O    1.415927   0.000000
    23  O    5.903383   6.577630   0.000000
    24  O    5.759536   6.231197   1.215650   0.000000
 Symmetry turned off by external request.
 Stoichiometry    C7H11O6(2)
 Framework group  C1[X(C7H11O6)]
 Deg. of freedom    66
 Full point group                 C1      NOp   1
 Rotational constants (GHZ):      1.2448776      0.4277068      0.3571540
 Leave Link  202 at Thu Feb  4 14:28:39 2021, MaxMem=    33554432 cpu:         0.0
 (Enter /apps/applications/gaussian/G09.D01/2/default/g09/l301.exe)
 Standard basis: VSTO-6G (5D, 7F)
 Ernie: Thresh=  0.10000D-02 Tol=  0.10000D-05 Strict=F.
  NNHCO=     0 NNPyr=     0 NCTC=     0               EPep=         0.000000000
    EC=       409.903689248  ECS=         5.036933158   EG=         0.354802045
   EHC=         0.002064532  EAt=       -97.491951148  AtH=         3.389121767
 EPDDG=         0.000000000  ECC=       415.297488984 EAtT=       100.881072916
    63 basis functions,   378 primitive gaussians,    63 cartesian basis functions
    38 alpha electrons       37 beta electrons
       nuclear repulsion energy       516.1785618992 Hartrees.
 IExCor=    0 DFT=F Ex=HF Corr=None ExCW=0 ScaHFX=  1.000000
 ScaDFX=  1.000000  1.000000  1.000000  1.000000 ScalE2=  1.000000  1.000000
 IRadAn=      0 IRanWt=     -1 IRanGd=            0 ICorTp=0 IEmpDi=  4
 Integral buffers will be    131072 words long.
 Regular integral format.
 Two-electron integral symmetry is turned off.
 Leave Link  301 at Thu Feb  4 14:28:39 2021, MaxMem=    33554432 cpu:         0.0
 (Enter /apps/applications/gaussian/G09.D01/2/default/g09/l302.exe)
 Do NDO integrals.
 NPDir=0 NMtPBC=     1 NCelOv=     1 NCel=       1 NClECP=     1 NCelD=      1
         NCelK=      1 NCelE2=     1 NClLst=     1 CellRange=     0.0.
 One-electron integrals computed using PRISM.
 NBasis=    63 RedAO= F EigKep=  0.00D+00  NBF=    63
 NBsUse=    63 1.00D-04 EigRej=  0.00D+00 NBFU=    63
 Leave Link  302 at Thu Feb  4 14:28:39 2021, MaxMem=    33554432 cpu:         0.1
 (Enter /apps/applications/gaussian/G09.D01/2/default/g09/l303.exe)
 DipDrv:  MaxL=1.
 Leave Link  303 at Thu Feb  4 14:28:40 2021, MaxMem=    33554432 cpu:         0.0
 (Enter /apps/applications/gaussian/G09.D01/2/default/g09/l401.exe)
 Simple Huckel Guess.
 JPrj=0 DoOrth=F DoCkMO=T.
 Mixing orbitals, IMix= 1 IMixAn=  0 NRI=1 NE=   38 Coef=  7.07106781D-01  7.07106781D-01
 Mixing orbitals, IMix= 1 IMixAn=  0 NRI=1 NE=   37 Coef= -7.07106781D-01  7.07106781D-01
 Initial guess <Sx>= 0.0000 <Sy>= 0.0000 <Sz>= 0.5000 <S**2>= 1.0000 S= 0.6180
 Leave Link  401 at Thu Feb  4 14:28:40 2021, MaxMem=    33554432 cpu:         0.0
 (Enter /apps/applications/gaussian/G09.D01/2/default/g09/l508.exe)
 Direct SCF.
 Tight linear equation convergence will be used.
 UPM6 wavefunction.
 Quadratic Convergence SCF Method.
 Line search only if initial step raises energy.
 Two-electron integral symmetry not used.
 ReadGW:  IGet=1 IStart=       59293 Next=       59293 LGW=           0.
 Keep J ints in memory in canonical form, NReq=922402.
 FoFCou: FMM=F IPFlag=           0 FMFlag=           0 FMFlg1=           0
         NFxFlg=           0 DoJE=F BraDBF=F KetDBF=F FulRan=T
         wScrn=  0.000000 ICntrl=     600 IOpCl=  2 I1Cent=           0 NGrid=           0
         NMat0=    1 NMatS0=    141 NMatT0=    0 NMatD0=    1 NMtDS0=    0 NMtDT0=    0
 Symmetry not used in FoFCou.
 Iteration   1 EE= 0.898367537012291                                    Grad=6.659D-01 Max rot=    8.1901 deg.
 Gradient too large for Newton-Raphson -- use scaled steepest descent instead.
 Alpha Gap=     0.101 HL deriv= 1.41D+00
  Beta Gap=     0.265 HL deriv= 1.33D-03
     ILin= 1 X=0.000D+00 Y= 8.983675370123D-01 DE= 0.00D+00 F= -1.61D+00
     ILin= 2 X=3.000D-01 Y= 4.737863950988D-01 DE=-4.25D-01 F= -1.18D+00
     ILin= 3 X=4.000D-01 Y= 3.655488182769D-01 DE=-5.33D-01 F= -9.85D-01
     ILin= 4 X=6.000D-01 Y= 2.084777999506D-01 DE=-6.90D-01 F= -5.86D-01
     ILin= 5 X=8.000D-01 Y= 1.287881131976D-01 DE=-7.70D-01 F= -2.21D-01
     Note:  rotation exceeds Pi/2.
     ILin= 6 X=1.200D+00 Y= 1.498218090403D-01 DE=-7.49D-01 F=  2.70D-01
     An  expanding polynomial of degree  6 produced  0.9460
 Iteration   2 EE= 0.113023279355048     Delta-E=       -0.785344257657 Grad=3.056D-01 Max rot=    5.5091 deg.
 Gradient too large for Newton-Raphson -- use scaled steepest descent instead.
 Alpha Gap=     0.190 HL deriv= 5.06D-01
  Beta Gap=     0.276 HL deriv= 4.09D-02
     ILin= 1 X=0.000D+00 Y= 1.130232793550D-01 DE= 0.00D+00 F= -3.08D-01
     ILin= 2 X=5.000D-01 Y=-1.972948271646D-02 DE=-1.33D-01 F= -2.16D-01
     ILin= 3 X=8.000D-01 Y=-7.397810660768D-02 DE=-1.87D-01 F= -1.44D-01
     ILin= 4 X=1.100D+00 Y=-1.049358109268D-01 DE=-2.18D-01 F= -6.15D-02
     ILin= 5 X=1.500D+00 Y=-1.062871114589D-01 DE=-2.19D-01 F=  5.54D-02
     Accept linear search using points  4 and  5.
     An  expanding polynomial of degree  5 produced  1.3017
 Iteration   3 EE=-0.111474847076579     Delta-E=       -0.224498126432 Grad=9.960D-02 Max rot=    1.6079 deg.
 Gradient too large for Newton-Raphson -- use scaled steepest descent instead.
 Alpha Gap=     0.349 HL deriv= 8.03D-02
  Beta Gap=     0.292 HL deriv= 6.00D-02
     ILin= 1 X=0.000D+00 Y=-1.114748470766D-01 DE= 0.00D+00 F= -3.22D-02
     ILin= 2 X=1.100D+00 Y=-1.346331575579D-01 DE=-2.32D-02 F= -9.51D-03
     Reject lnstep minimum 1.349D+00 FVal=-1.357452666690D-01 Lims=  0.00D+00  1.10D+00
     ILin= 3 X=1.800D+00 Y=-1.359134432532D-01 DE=-2.44D-02 F=  5.97D-03
     Accept linear search using points  2 and  3.
     An  expanding polynomial of degree  3 produced  1.4976
 Iteration   4 EE=-0.136691619322164     Delta-E=       -0.025216772246 Grad=4.331D-02 Max rot=    0.9383 deg.
 Gradient too large for Newton-Raphson -- use scaled steepest descent instead.
 Alpha Gap=     0.386 HL deriv= 1.41D-02
  Beta Gap=     0.300 HL deriv= 5.46D-02
     ILin= 1 X=0.000D+00 Y=-1.366916193222D-01 DE= 0.00D+00 F= -6.57D-03
     ILin= 2 X=1.400D+00 Y=-1.420622539006D-01 DE=-5.37D-03 F= -1.08D-03
     Reject lnstep minimum 1.474D+00 FVal=-1.420914535798D-01 Lims=  0.00D+00  1.40D+00
     ILin= 3 X=2.400D+00 Y=-1.411404620488D-01 DE=-4.45D-03 F=  2.93D-03
     An  expanding polynomial of degree  3 produced  1.6675
 Iteration   5 EE=-0.142208106150974     Delta-E=       -0.005516486829 Grad=3.653D-02 Max rot=    0.8756 deg.
 Gradient too large for Newton-Raphson -- use scaled steepest descent instead.
 Alpha Gap=     0.395 HL deriv= 5.97D-03
  Beta Gap=     0.306 HL deriv= 5.00D-02
     ILin= 1 X=0.000D+00 Y=-1.422081061510D-01 DE= 0.00D+00 F= -4.64D-03
     ILin= 2 X=1.600D+00 Y=-1.458174898762D-01 DE=-3.61D-03 F=  1.46D-04
     Accept linear search using points  1 and  2.
     An  expanding polynomial of degree  2 produced  1.5862
     Minimum is close to point  2 DX= -1.38D-02 DF= -6.27D-07 DXR=  8.73D-03 DFR=  1.74D-04 which will be used.
 Iteration   6 EE=-0.145817489876208     Delta-E=       -0.003609383725 Grad=3.266D-02 Max rot=    0.8303 deg.
 Gradient too large for Newton-Raphson -- use scaled steepest descent instead.
 Alpha Gap=     0.402 HL deriv= 3.18D-03
  Beta Gap=     0.310 HL deriv= 4.67D-02
     ILin= 1 X=0.000D+00 Y=-1.458174898762D-01 DE= 0.00D+00 F= -3.72D-03
     ILin= 2 X=1.600D+00 Y=-1.486776745802D-01 DE=-2.86D-03 F=  1.57D-04
     Accept linear search using points  1 and  2.
     An  expanding polynomial of degree  2 produced  1.5807
     Minimum is close to point  2 DX= -1.93D-02 DF= -9.42D-07 DXR=  1.22D-02 DFR=  3.29D-04 which will be used.
 Iteration   7 EE=-0.148677674580199     Delta-E=       -0.002860184704 Grad=3.001D-02 Max rot=    0.7412 deg.
 Gradient too large for Newton-Raphson -- use scaled steepest descent instead.
 Alpha Gap=     0.408 HL deriv= 1.43D-03
  Beta Gap=     0.314 HL deriv= 4.12D-02
     ILin= 1 X=0.000D+00 Y=-1.486776745802D-01 DE= 0.00D+00 F= -3.08D-03
     ILin= 2 X=1.600D+00 Y=-1.509313491727D-01 DE=-2.25D-03 F=  2.68D-04
     Accept linear search using points  1 and  2.
     An  expanding polynomial of degree  2 produced  1.5567
     Minimum is close to point  2 DX= -4.33D-02 DF= -3.59D-06 DXR=  2.78D-02 DFR=  1.59D-03 which will be used.
 Iteration   8 EE=-0.150931349172652     Delta-E=       -0.002253674592 Grad=2.762D-02 Max rot=    0.6668 deg.
 Gradient too large for Newton-Raphson -- use scaled steepest descent instead.
 Alpha Gap=     0.411 HL deriv= 1.26D-03
  Beta Gap=     0.317 HL deriv= 3.67D-02
     ILin= 1 X=0.000D+00 Y=-1.509313491727D-01 DE= 0.00D+00 F= -2.56D-03
     ILin= 2 X=1.600D+00 Y=-1.526570937979D-01 DE=-1.73D-03 F=  4.05D-04
     Accept linear search using points  1 and  2.
     An  expanding polynomial of degree  2 produced  1.5140
     Minimum is close to point  2 DX= -8.60D-02 DF= -1.07D-05 DXR=  5.68D-02 DFR=  6.20D-03 which will be used.
 Iteration   9 EE=-0.152657093797870     Delta-E=       -0.001725744625 Grad=2.571D-02 Max rot=    0.5690 deg.
 Gradient too large for Newton-Raphson -- use scaled steepest descent instead.
 Alpha Gap=     0.415 HL deriv= 7.13D-04
  Beta Gap=     0.320 HL deriv= 3.11D-02
     ILin= 1 X=0.000D+00 Y=-1.526570937979D-01 DE= 0.00D+00 F= -2.14D-03
     ILin= 2 X=1.500D+00 Y=-1.539842682705D-01 DE=-1.33D-03 F=  3.70D-04
     Accept linear search using points  1 and  2.
     An  expanding polynomial of degree  2 produced  1.3975
     Minimum is close to point  2 DX= -1.02D-01 DF= -1.24D-05 DXR=  7.33D-02 DFR=  9.34D-03 which will be used.
 Iteration  10 EE=-0.153984268270506     Delta-E=       -0.001327174473 Grad=2.161D-02 Max rot=    0.4988 deg.
 Gradient too large for Newton-Raphson -- use scaled steepest descent instead.
 Alpha Gap=     0.416 HL deriv= 6.73D-04
  Beta Gap=     0.322 HL deriv= 2.71D-02
     ILin= 1 X=0.000D+00 Y=-1.539842682705D-01 DE= 0.00D+00 F= -1.53D-03
     ILin= 2 X=1.500D+00 Y=-1.549566420301D-01 DE=-9.72D-04 F=  2.37D-04
     Accept linear search using points  1 and  2.
     An  expanding polynomial of degree  2 produced  1.4098
     Minimum is close to point  2 DX= -9.02D-02 DF= -7.00D-06 DXR=  6.39D-02 DFR=  7.19D-03 which will be used.
 Iteration  11 EE=-0.154956642030129     Delta-E=       -0.000972373760 Grad=1.832D-02 Max rot=    0.4210 deg.
 Gradient too large for Newton-Raphson -- use scaled steepest descent instead.
 Alpha Gap=     0.418 HL deriv= 3.67D-04
  Beta Gap=     0.323 HL deriv= 2.28D-02
     ILin= 1 X=0.000D+00 Y=-1.549566420301D-01 DE= 0.00D+00 F= -1.10D-03
     ILin= 2 X=1.400D+00 Y=-1.556728549767D-01 DE=-7.16D-04 F=  7.94D-05
     Accept linear search using points  1 and  2.
     An  expanding polynomial of degree  2 produced  1.3571
     Minimum is close to point  2 DX= -4.29D-02 DF= -1.21D-06 DXR=  3.16D-02 DFR=  1.69D-03 which will be used.
 Iteration  12 EE=-0.155672854976729     Delta-E=       -0.000716212947 Grad=1.392D-02 Max rot=    0.3654 deg.
 Gradient too large for Newton-Raphson -- use scaled steepest descent instead.
 Alpha Gap=     0.418 HL deriv= 3.30D-04
  Beta Gap=     0.324 HL deriv= 1.97D-02
     ILin= 1 X=0.000D+00 Y=-1.556728549767D-01 DE= 0.00D+00 F= -6.77D-04
     ILin= 2 X=1.400D+00 Y=-1.561738897475D-01 DE=-5.01D-04 F= -3.84D-05
     Reject lnstep minimum 1.430D+00 FVal=-1.561743081847D-01 Lims=  0.00D+00  1.40D+00
     ILin= 3 X=2.800D+00 Y=-1.557794732607D-01 DE=-1.07D-04 F=  6.02D-04
     An  expanding polynomial of degree  3 produced  1.4833
     Minimum is close to point  2 DX=  8.33D-02 DF= -1.59D-06 DXR=  5.62D-02 DFR=  3.17D-03 which will be used.
 Iteration  13 EE=-0.156173889747493     Delta-E=       -0.000501034771 Grad=1.078D-02 Max rot=    0.3101 deg.
 Gradient too large for Newton-Raphson -- use scaled steepest descent instead.
 Alpha Gap=     0.419 HL deriv= 1.48D-04
  Beta Gap=     0.324 HL deriv= 1.67D-02
     ILin= 1 X=0.000D+00 Y=-1.561738897475D-01 DE= 0.00D+00 F= -4.29D-04
     ILin= 2 X=1.400D+00 Y=-1.565276045153D-01 DE=-3.54D-04 F= -7.62D-05
     Reject lnstep minimum 1.478D+00 FVal=-1.565297859711D-01 Lims=  0.00D+00  1.40D+00
     ILin= 3 X=2.800D+00 Y=-1.563868973209D-01 DE=-2.13D-04 F=  2.77D-04
     An  expanding polynomial of degree  3 produced  1.7016
 Iteration  14 EE=-0.156539123009566     Delta-E=       -0.000365233262 Grad=1.084D-02 Max rot=    0.2562 deg.
 Gradient too large for Newton-Raphson -- use scaled steepest descent instead.
 Alpha Gap=     0.420 HL deriv= 2.15D-04
  Beta Gap=     0.325 HL deriv= 1.38D-02
     ILin= 1 X=0.000D+00 Y=-1.565391230096D-01 DE= 0.00D+00 F= -3.91D-04
     ILin= 2 X=1.600D+00 Y=-1.567855009341D-01 DE=-2.46D-04 F=  8.36D-05
     Accept linear search using points  1 and  2.
     An  expanding polynomial of degree  2 produced  1.4767
     Minimum is close to point  2 DX= -1.23D-01 DF= -3.15D-06 DXR=  8.35D-02 DFR=  1.28D-02 which will be used.
 Iteration  15 EE=-0.156785500934120     Delta-E=       -0.000246377925 Grad=1.030D-02 Max rot=    0.2106 deg.
 Gradient too large for Newton-Raphson -- use scaled steepest descent instead.
 Alpha Gap=     0.420 HL deriv= 1.47D-04
  Beta Gap=     0.325 HL deriv= 1.13D-02
     ILin= 1 X=0.000D+00 Y=-1.567855009341D-01 DE= 0.00D+00 F= -3.35D-04
     ILin= 2 X=1.600D+00 Y=-1.569552763978D-01 DE=-1.70D-04 F=  1.22D-04
     Accept linear search using points  1 and  2.
     An  expanding polynomial of degree  2 produced  1.3597
 Iteration  16 EE=-0.156976459816406     Delta-E=       -0.000190958882 Grad=7.502D-03 Max rot=    0.1809 deg.
 QCNR:  CnvC1=4.37D-09 CnvC2=4.37D-08
 LinEq1:  Iter=  0 NonCon=     1 RMS=3.08D-04 Max=1.10D-02 NDo=     1
 AX will form     1 AO Fock derivatives at one time.
 LinEq1:  Iter=  1 NonCon=     1 RMS=9.66D-05 Max=1.96D-03 NDo=     1
 LinEq1:  Iter=  2 NonCon=     1 RMS=5.93D-06 Max=7.44D-05 NDo=     1
 LinEq1:  Iter=  3 NonCon=     1 RMS=1.25D-06 Max=1.56D-05 NDo=     1
 LinEq1:  Iter=  4 NonCon=     1 RMS=2.25D-07 Max=2.71D-06 NDo=     1
 LinEq1:  Iter=  5 NonCon=     1 RMS=4.77D-08 Max=6.00D-07 NDo=     1
 LinEq1:  Iter=  6 NonCon=     1 RMS=1.03D-08 Max=1.12D-07 NDo=     1
 LinEq1:  Iter=  7 NonCon=     0 RMS=2.23D-09 Max=2.05D-08 NDo=     1
 Linear equations converged to 4.373D-09 4.373D-08 after     7 iterations.
 Angle between quadratic step and gradient=  55.21 degrees.
     ILin= 1 X=0.000D+00 Y=-1.569764598164D-01 DE= 0.00D+00 F= -8.76D-04
     ILin= 2 X=1.000D+00 Y=-1.574090187667D-01 DE=-4.33D-04 F=  1.51D-05
     Accept linear search using points  1 and  2.
     An  expanding polynomial of degree  2 produced  0.9833
     Minimum is close to point  2 DX= -1.67D-02 DF= -1.27D-07 DXR=  1.70D-02 DFR=  2.93D-04 which will be used.
 Iteration  17 EE=-0.157409018766657     Delta-E=       -0.000432558950 Grad=3.892D-04 Max rot=    0.0069 deg.
 QCNR:  CnvC1=3.89D-09 CnvC2=3.89D-08
 LinEq1:  Iter=  0 NonCon=     1 RMS=1.60D-05 Max=2.85D-04 NDo=     1
 LinEq1:  Iter=  1 NonCon=     1 RMS=2.83D-06 Max=4.45D-05 NDo=     1
 LinEq1:  Iter=  2 NonCon=     1 RMS=7.56D-07 Max=1.37D-05 NDo=     1
 LinEq1:  Iter=  3 NonCon=     1 RMS=1.81D-07 Max=4.10D-06 NDo=     1
 LinEq1:  Iter=  4 NonCon=     1 RMS=3.74D-08 Max=6.36D-07 NDo=     1
 LinEq1:  Iter=  5 NonCon=     1 RMS=7.94D-09 Max=9.83D-08 NDo=     1
 LinEq1:  Iter=  6 NonCon=     0 RMS=1.56D-09 Max=1.71D-08 NDo=     1
 Linear equations converged to 3.892D-09 3.892D-08 after     6 iterations.
 Angle between quadratic step and gradient=  42.60 degrees.
     ILin= 1 X=0.000D+00 Y=-1.574090187667D-01 DE= 0.00D+00 F= -1.33D-06
     ILin= 2 X=1.000D+00 Y=-1.574096819226D-01 DE=-6.63D-07 F= -8.78D-10
     Reject lnstep minimum 1.001D+00 FVal=-1.574096819228D-01 Lims=  0.00D+00  1.00D+00
     ILin= 3 X=2.000D+00 Y=-1.574090211986D-01 DE=-2.43D-09 F=  1.32D-06
     An  expanding polynomial of degree  3 produced  1.0009
     Minimum is close to point  2 DX=  9.19D-04 DF= -5.58D-13 DXR=  9.18D-04 DFR=  8.42D-07 which will be used.
 Iteration  18 EE=-0.157409681922559     Delta-E=       -0.000000663156 Grad=6.871D-06 Max rot=    0.0001 deg.
 QCNR:  CnvC1=6.87D-11 CnvC2=6.87D-10
 LinEq1:  Iter=  0 NonCon=     1 RMS=2.25D-07 Max=2.30D-06 NDo=     1
 LinEq1:  Iter=  1 NonCon=     1 RMS=6.59D-08 Max=7.95D-07 NDo=     1
 LinEq1:  Iter=  2 NonCon=     1 RMS=1.45D-08 Max=2.58D-07 NDo=     1
 LinEq1:  Iter=  3 NonCon=     1 RMS=3.43D-09 Max=7.56D-08 NDo=     1
 LinEq1:  Iter=  4 NonCon=     1 RMS=8.35D-10 Max=1.06D-08 NDo=     1
 LinEq1:  Iter=  5 NonCon=     1 RMS=2.03D-10 Max=2.53D-09 NDo=     1
 LinEq1:  Iter=  6 NonCon=     0 RMS=4.21D-11 Max=5.87D-10 NDo=     1
 Linear equations converged to 6.871D-11 6.871D-10 after     6 iterations.
 Angle between quadratic step and gradient=  50.69 degrees.
     ILin= 1 X=0.000D+00 Y=-1.574096819226D-01 DE= 0.00D+00 F= -2.60D-10
     ILin= 2 X=1.000D+00 Y=-1.574096820525D-01 DE=-1.30D-10
 Iteration  19 EE=-0.157409682052503     Delta-E=       -0.000000000130 Grad=1.543D-07 Max rot=    0.0000 deg.
 Rotation gradient small -- convergence achieved.
 SCF Done:  E(UPM6) = -0.157409682053     a.u. after   19 cycles
            Convg  =    0.1543D-06                    56 Fock formations.
              S**2 =  0.7718                  -V/T =  0.9964
 <Sx>= 0.0000 <Sy>= 0.0000 <Sz>= 0.5000 <S**2>= 0.7718 S= 0.5108
 <L.S>= 0.000000000000E+00
 Annihilation of the first spin contaminant:
 S**2 before annihilation     0.7718,   after     0.7501
 Leave Link  508 at Thu Feb  4 14:28:40 2021, MaxMem=    33554432 cpu:         0.2
 (Enter /apps/applications/gaussian/G09.D01/2/default/g09/l801.exe)
 Range of M.O.s used for correlation:     1    63
 NBasis=    63 NAE=    38 NBE=    37 NFC=     0 NFV=     0
 NROrb=     63 NOA=    38 NOB=    37 NVA=    25 NVB=    26
 Leave Link  801 at Thu Feb  4 14:28:40 2021, MaxMem=    33554432 cpu:         0.0
 (Enter /apps/applications/gaussian/G09.D01/2/default/g09/l1101.exe)
 Using compressed storage, NAtomX=    24.
 Will process     25 centers per pass.
 Leave Link 1101 at Thu Feb  4 14:28:40 2021, MaxMem=    33554432 cpu:         0.1
 (Enter /apps/applications/gaussian/G09.D01/2/default/g09/l1102.exe)
 Symmetrizing basis deriv contribution to polar:
 IMax=3 JMax=2 DiffMx= 0.00D+00
 Leave Link 1102 at Thu Feb  4 14:28:40 2021, MaxMem=    33554432 cpu:         0.0
 (Enter /apps/applications/gaussian/G09.D01/2/default/g09/l1110.exe)
 Forming Gx(P) for the SCF density, NAtomX=    24.
 Integral derivatives from FoFJK, PRISM(SPDF).
 Do as many integral derivatives as possible in FoFJK.
 G2DrvN: MDV=      33495245.
 G2DrvN: will do    25 centers at a time, making    1 passes.
 Calling FoFCou, ICntrl=  3107 FMM=F I1Cent=   0 AccDes= 0.00D+00.
 FoFJK:  IHMeth=40 ICntrl=    3107 DoSepK=F KAlg= 0 I1Cent=   0 FoldK=F
 IRaf=         0 NMat=   1 IRICut=       1 DoRegI=T DoRafI=F ISym2E= 0.
 FoFCou: FMM=F IPFlag=           0 FMFlag=      100000 FMFlg1=           0
         NFxFlg=           0 DoJE=F BraDBF=F KetDBF=F FulRan=T
         wScrn=  0.000000 ICntrl=    3107 IOpCl=  1 I1Cent=           0 NGrid=           0
         NMat0=    1 NMatS0=      1 NMatT0=    0 NMatD0=    1 NMtDS0=    0 NMtDT0=    0
 Symmetry not used in FoFCou.
 End of G2Drv F.D. properties file   721 does not exist.
 End of G2Drv F.D. properties file   722 does not exist.
 End of G2Drv F.D. properties file   788 does not exist.
 Leave Link 1110 at Thu Feb  4 14:28:40 2021, MaxMem=    33554432 cpu:         0.0
 (Enter /apps/applications/gaussian/G09.D01/2/default/g09/l1002.exe)
 Minotr:  UHF open shell wavefunction.
          IDoAtm=111111111111111111111111
          Direct CPHF calculation.
          Differentiating once with respect to electric field.
                with respect to dipole field.
          Differentiating once with respect to nuclear coordinates.
          Electric field/nuclear overlap derivatives assumed to be zero.
          Requested convergence is 1.0D-08 RMS, and 1.0D-07 maximum.
          NewPWx=T KeepS1=F KeepF1=F KeepIn=T MapXYZ=F SortEE=F KeepMc=T.
          MDV=      33495171 using IRadAn=       2.
 Keep J ints in memory in canonical form, NReq=894630.
 FoFCou: FMM=F IPFlag=           0 FMFlag=           0 FMFlg1=           0
         NFxFlg=           0 DoJE=F BraDBF=F KetDBF=F FulRan=T
         wScrn=  0.000000 ICntrl=     600 IOpCl=  2 I1Cent=           0 NGrid=           0
         NMat0=    1 NMatS0=    141 NMatT0=    0 NMatD0=    1 NMtDS0=    0 NMtDT0=    0
 Symmetry not used in FoFCou.
          Solving linear equations separately, MaxMat=       0.
          There are    75 degrees of freedom in the 1st order CPHF.  IDoFFX=5 NUNeed=    75.
 LinEq1:  Iter=  0 NonCon=    75 RMS=1.94D-01 Max=2.44D+00 NDo=    75
 AX will form    75 AO Fock derivatives at one time.
 LinEq1:  Iter=  1 NonCon=    75 RMS=3.23D-02 Max=3.20D-01 NDo=    75
 LinEq1:  Iter=  2 NonCon=    75 RMS=5.33D-03 Max=9.85D-02 NDo=    75
 LinEq1:  Iter=  3 NonCon=    75 RMS=9.88D-04 Max=1.53D-02 NDo=    75
 LinEq1:  Iter=  4 NonCon=    75 RMS=2.10D-04 Max=2.47D-03 NDo=    75
 LinEq1:  Iter=  5 NonCon=    75 RMS=4.60D-05 Max=7.77D-04 NDo=    75
 LinEq1:  Iter=  6 NonCon=    74 RMS=1.04D-05 Max=1.59D-04 NDo=    75
 LinEq1:  Iter=  7 NonCon=    68 RMS=2.25D-06 Max=3.20D-05 NDo=    75
 LinEq1:  Iter=  8 NonCon=    29 RMS=5.29D-07 Max=7.87D-06 NDo=    75
 LinEq1:  Iter=  9 NonCon=     6 RMS=1.34D-07 Max=1.44D-06 NDo=    75
 LinEq1:  Iter= 10 NonCon=     3 RMS=2.56D-08 Max=2.11D-07 NDo=    75
 LinEq1:  Iter= 11 NonCon=     0 RMS=4.00D-09 Max=4.22D-08 NDo=    75
 Linear equations converged to 1.000D-08 1.000D-07 after    11 iterations.
 FullF1:  Do perturbations    1 to     3.
 Isotropic polarizability for W=    0.000000       77.43 Bohr**3.
 End of Minotr F.D. properties file   721 does not exist.
 End of Minotr F.D. properties file   722 does not exist.
 End of Minotr F.D. properties file   788 does not exist.
 Leave Link 1002 at Thu Feb  4 14:28:41 2021, MaxMem=    33554432 cpu:         0.8
 (Enter /apps/applications/gaussian/G09.D01/2/default/g09/l601.exe)
 Copying SCF densities to generalized density rwf, IOpCl= 1 IROHF=0.

 **********************************************************************

            Population analysis using the SCF density.

 **********************************************************************

 Alpha  occ. eigenvalues --   -1.25499  -1.21559  -1.19083  -1.12369  -1.11766
 Alpha  occ. eigenvalues --   -1.08664  -1.06487  -1.00101  -0.97580  -0.88511
 Alpha  occ. eigenvalues --   -0.82944  -0.77674  -0.72375  -0.70931  -0.69038
 Alpha  occ. eigenvalues --   -0.68090  -0.65960  -0.63633  -0.62894  -0.60784
 Alpha  occ. eigenvalues --   -0.58066  -0.57588  -0.57073  -0.55955  -0.54367
 Alpha  occ. eigenvalues --   -0.53452  -0.51199  -0.50337  -0.49722  -0.48722
 Alpha  occ. eigenvalues --   -0.47369  -0.46863  -0.45070  -0.42947  -0.41737
 Alpha  occ. eigenvalues --   -0.38977  -0.38315  -0.37909
 Alpha virt. eigenvalues --   -0.01966  -0.00731  -0.00138   0.01094   0.07302
 Alpha virt. eigenvalues --    0.07803   0.09519   0.10277   0.11157   0.12118
 Alpha virt. eigenvalues --    0.13203   0.13542   0.14729   0.15394   0.16246
 Alpha virt. eigenvalues --    0.17266   0.17648   0.18074   0.18205   0.18969
 Alpha virt. eigenvalues --    0.19676   0.20353   0.20848   0.21455   0.22322
  Beta  occ. eigenvalues --   -1.21331  -1.19164  -1.18943  -1.12363  -1.08646
  Beta  occ. eigenvalues --   -1.06404  -1.02616  -1.00093  -0.97474  -0.88098
  Beta  occ. eigenvalues --   -0.82313  -0.76369  -0.72083  -0.70695  -0.68359
  Beta  occ. eigenvalues --   -0.64053  -0.63605  -0.62765  -0.61723  -0.59736
  Beta  occ. eigenvalues --   -0.57385  -0.57025  -0.56253  -0.54333  -0.54277
  Beta  occ. eigenvalues --   -0.51907  -0.51068  -0.50298  -0.49681  -0.48493
  Beta  occ. eigenvalues --   -0.46998  -0.46068  -0.44902  -0.42944  -0.38974
  Beta  occ. eigenvalues --   -0.38288  -0.35005
  Beta virt. eigenvalues --   -0.04444  -0.01964   0.01093   0.01806   0.02192
  Beta virt. eigenvalues --    0.07801   0.08354   0.09529   0.10404   0.11990
  Beta virt. eigenvalues --    0.12228   0.13213   0.13538   0.14955   0.15397
  Beta virt. eigenvalues --    0.16246   0.17250   0.17646   0.18074   0.18202
  Beta virt. eigenvalues --    0.18969   0.19673   0.20352   0.20848   0.21454
  Beta virt. eigenvalues --    0.22322
          Condensed to atoms (all electrons):
               1          2          3          4          5          6
     1  O    6.398993   0.000000   0.000000   0.000000   0.000000   0.000000
     2  C    0.000000   3.498150   0.000000   0.000000   0.000000   0.000000
     3  C    0.000000   0.000000   4.428121   0.000000   0.000000   0.000000
     4  C    0.000000   0.000000   0.000000   4.193674   0.000000   0.000000
     5  C    0.000000   0.000000   0.000000   0.000000   4.320844   0.000000
     6  C    0.000000   0.000000   0.000000   0.000000   0.000000   4.065579
     7  H    0.000000   0.000000   0.000000   0.000000   0.000000   0.000000
     8  C    0.000000   0.000000   0.000000   0.000000   0.000000   0.000000
     9  O    0.000000   0.000000   0.000000   0.000000   0.000000   0.000000
    10  C    0.000000   0.000000   0.000000   0.000000   0.000000   0.000000
    11  H    0.000000   0.000000   0.000000   0.000000   0.000000   0.000000
    12  H    0.000000   0.000000   0.000000   0.000000   0.000000   0.000000
    13  H    0.000000   0.000000   0.000000   0.000000   0.000000   0.000000
    14  H    0.000000   0.000000   0.000000   0.000000   0.000000   0.000000
    15  H    0.000000   0.000000   0.000000   0.000000   0.000000   0.000000
    16  H    0.000000   0.000000   0.000000   0.000000   0.000000   0.000000
    17  H    0.000000   0.000000   0.000000   0.000000   0.000000   0.000000
    18  H    0.000000   0.000000   0.000000   0.000000   0.000000   0.000000
    19  H    0.000000   0.000000   0.000000   0.000000   0.000000   0.000000
    20  H    0.000000   0.000000   0.000000   0.000000   0.000000   0.000000
    21  O    0.000000   0.000000   0.000000   0.000000   0.000000   0.000000
    22  O    0.000000   0.000000   0.000000   0.000000   0.000000   0.000000
    23  O    0.000000   0.000000   0.000000   0.000000   0.000000   0.000000
    24  O    0.000000   0.000000   0.000000   0.000000   0.000000   0.000000
               7          8          9         10         11         12
     1  O    0.000000   0.000000   0.000000   0.000000   0.000000   0.000000
     2  C    0.000000   0.000000   0.000000   0.000000   0.000000   0.000000
     3  C    0.000000   0.000000   0.000000   0.000000   0.000000   0.000000
     4  C    0.000000   0.000000   0.000000   0.000000   0.000000   0.000000
     5  C    0.000000   0.000000   0.000000   0.000000   0.000000   0.000000
     6  C    0.000000   0.000000   0.000000   0.000000   0.000000   0.000000
     7  H    0.831158   0.000000   0.000000   0.000000   0.000000   0.000000
     8  C    0.000000   3.444664   0.000000   0.000000   0.000000   0.000000
     9  O    0.000000   0.000000   6.456220   0.000000   0.000000   0.000000
    10  C    0.000000   0.000000   0.000000   4.636302   0.000000   0.000000
    11  H    0.000000   0.000000   0.000000   0.000000   0.712603   0.000000
    12  H    0.000000   0.000000   0.000000   0.000000   0.000000   0.792919
    13  H    0.000000   0.000000   0.000000   0.000000   0.000000   0.000000
    14  H    0.000000   0.000000   0.000000   0.000000   0.000000   0.000000
    15  H    0.000000   0.000000   0.000000   0.000000   0.000000   0.000000
    16  H    0.000000   0.000000   0.000000   0.000000   0.000000   0.000000
    17  H    0.000000   0.000000   0.000000   0.000000   0.000000   0.000000
    18  H    0.000000   0.000000   0.000000   0.000000   0.000000   0.000000
    19  H    0.000000   0.000000   0.000000   0.000000   0.000000   0.000000
    20  H    0.000000   0.000000   0.000000   0.000000   0.000000   0.000000
    21  O    0.000000   0.000000   0.000000   0.000000   0.000000   0.000000
    22  O    0.000000   0.000000   0.000000   0.000000   0.000000   0.000000
    23  O    0.000000   0.000000   0.000000   0.000000   0.000000   0.000000
    24  O    0.000000   0.000000   0.000000   0.000000   0.000000   0.000000
              13         14         15         16         17         18
     1  O    0.000000   0.000000   0.000000   0.000000   0.000000   0.000000
     2  C    0.000000   0.000000   0.000000   0.000000   0.000000   0.000000
     3  C    0.000000   0.000000   0.000000   0.000000   0.000000   0.000000
     4  C    0.000000   0.000000   0.000000   0.000000   0.000000   0.000000
     5  C    0.000000   0.000000   0.000000   0.000000   0.000000   0.000000
     6  C    0.000000   0.000000   0.000000   0.000000   0.000000   0.000000
     7  H    0.000000   0.000000   0.000000   0.000000   0.000000   0.000000
     8  C    0.000000   0.000000   0.000000   0.000000   0.000000   0.000000
     9  O    0.000000   0.000000   0.000000   0.000000   0.000000   0.000000
    10  C    0.000000   0.000000   0.000000   0.000000   0.000000   0.000000
    11  H    0.000000   0.000000   0.000000   0.000000   0.000000   0.000000
    12  H    0.000000   0.000000   0.000000   0.000000   0.000000   0.000000
    13  H    0.812677   0.000000   0.000000   0.000000   0.000000   0.000000
    14  H    0.000000   0.844551   0.000000   0.000000   0.000000   0.000000
    15  H    0.000000   0.000000   0.860580   0.000000   0.000000   0.000000
    16  H    0.000000   0.000000   0.000000   0.847542   0.000000   0.000000
    17  H    0.000000   0.000000   0.000000   0.000000   0.830128   0.000000
    18  H    0.000000   0.000000   0.000000   0.000000   0.000000   0.800625
    19  H    0.000000   0.000000   0.000000   0.000000   0.000000   0.000000
    20  H    0.000000   0.000000   0.000000   0.000000   0.000000   0.000000
    21  O    0.000000   0.000000   0.000000   0.000000   0.000000   0.000000
    22  O    0.000000   0.000000   0.000000   0.000000   0.000000   0.000000
    23  O    0.000000   0.000000   0.000000   0.000000   0.000000   0.000000
    24  O    0.000000   0.000000   0.000000   0.000000   0.000000   0.000000
              19         20         21         22         23         24
     1  O    0.000000   0.000000   0.000000   0.000000   0.000000   0.000000
     2  C    0.000000   0.000000   0.000000   0.000000   0.000000   0.000000
     3  C    0.000000   0.000000   0.000000   0.000000   0.000000   0.000000
     4  C    0.000000   0.000000   0.000000   0.000000   0.000000   0.000000
     5  C    0.000000   0.000000   0.000000   0.000000   0.000000   0.000000
     6  C    0.000000   0.000000   0.000000   0.000000   0.000000   0.000000
     7  H    0.000000   0.000000   0.000000   0.000000   0.000000   0.000000
     8  C    0.000000   0.000000   0.000000   0.000000   0.000000   0.000000
     9  O    0.000000   0.000000   0.000000   0.000000   0.000000   0.000000
    10  C    0.000000   0.000000   0.000000   0.000000   0.000000   0.000000
    11  H    0.000000   0.000000   0.000000   0.000000   0.000000   0.000000
    12  H    0.000000   0.000000   0.000000   0.000000   0.000000   0.000000
    13  H    0.000000   0.000000   0.000000   0.000000   0.000000   0.000000
    14  H    0.000000   0.000000   0.000000   0.000000   0.000000   0.000000
    15  H    0.000000   0.000000   0.000000   0.000000   0.000000   0.000000
    16  H    0.000000   0.000000   0.000000   0.000000   0.000000   0.000000
    17  H    0.000000   0.000000   0.000000   0.000000   0.000000   0.000000
    18  H    0.000000   0.000000   0.000000   0.000000   0.000000   0.000000
    19  H    0.799118   0.000000   0.000000   0.000000   0.000000   0.000000
    20  H    0.000000   0.789449   0.000000   0.000000   0.000000   0.000000
    21  O    0.000000   0.000000   6.188841   0.000000   0.000000   0.000000
    22  O    0.000000   0.000000   0.000000   6.294347   0.000000   0.000000
    23  O    0.000000   0.000000   0.000000   0.000000   6.169373   0.000000
    24  O    0.000000   0.000000   0.000000   0.000000   0.000000   5.983543
          Atomic-Atomic Spin Densities.
               1          2          3          4          5          6
     1  O    0.006877   0.000000   0.000000   0.000000   0.000000   0.000000
     2  C    0.000000  -0.079448   0.000000   0.000000   0.000000   0.000000
     3  C    0.000000   0.000000  -0.012079   0.000000   0.000000   0.000000
     4  C    0.000000   0.000000   0.000000  -0.000288   0.000000   0.000000
     5  C    0.000000   0.000000   0.000000   0.000000  -0.000093   0.000000
     6  C    0.000000   0.000000   0.000000   0.000000   0.000000  -0.000002
     7  H    0.000000   0.000000   0.000000   0.000000   0.000000   0.000000
     8  C    0.000000   0.000000   0.000000   0.000000   0.000000   0.000000
     9  O    0.000000   0.000000   0.000000   0.000000   0.000000   0.000000
    10  C    0.000000   0.000000   0.000000   0.000000   0.000000   0.000000
    11  H    0.000000   0.000000   0.000000   0.000000   0.000000   0.000000
    12  H    0.000000   0.000000   0.000000   0.000000   0.000000   0.000000
    13  H    0.000000   0.000000   0.000000   0.000000   0.000000   0.000000
    14  H    0.000000   0.000000   0.000000   0.000000   0.000000   0.000000
    15  H    0.000000   0.000000   0.000000   0.000000   0.000000   0.000000
    16  H    0.000000   0.000000   0.000000   0.000000   0.000000   0.000000
    17  H    0.000000   0.000000   0.000000   0.000000   0.000000   0.000000
    18  H    0.000000   0.000000   0.000000   0.000000   0.000000   0.000000
    19  H    0.000000   0.000000   0.000000   0.000000   0.000000   0.000000
    20  H    0.000000   0.000000   0.000000   0.000000   0.000000   0.000000
    21  O    0.000000   0.000000   0.000000   0.000000   0.000000   0.000000
    22  O    0.000000   0.000000   0.000000   0.000000   0.000000   0.000000
    23  O    0.000000   0.000000   0.000000   0.000000   0.000000   0.000000
    24  O    0.000000   0.000000   0.000000   0.000000   0.000000   0.000000
               7          8          9         10         11         12
     1  O    0.000000   0.000000   0.000000   0.000000   0.000000   0.000000
     2  C    0.000000   0.000000   0.000000   0.000000   0.000000   0.000000
     3  C    0.000000   0.000000   0.000000   0.000000   0.000000   0.000000
     4  C    0.000000   0.000000   0.000000   0.000000   0.000000   0.000000
     5  C    0.000000   0.000000   0.000000   0.000000   0.000000   0.000000
     6  C    0.000000   0.000000   0.000000   0.000000   0.000000   0.000000
     7  H    0.000001   0.000000   0.000000   0.000000   0.000000   0.000000
     8  C    0.000000   0.000002   0.000000   0.000000   0.000000   0.000000
     9  O    0.000000   0.000000  -0.000002   0.000000   0.000000   0.000000
    10  C    0.000000   0.000000   0.000000   0.000000   0.000000   0.000000
    11  H    0.000000   0.000000   0.000000   0.000000   0.000001   0.000000
    12  H    0.000000   0.000000   0.000000   0.000000   0.000000   0.000142
    13  H    0.000000   0.000000   0.000000   0.000000   0.000000   0.000000
    14  H    0.000000   0.000000   0.000000   0.000000   0.000000   0.000000
    15  H    0.000000   0.000000   0.000000   0.000000   0.000000   0.000000
    16  H    0.000000   0.000000   0.000000   0.000000   0.000000   0.000000
    17  H    0.000000   0.000000   0.000000   0.000000   0.000000   0.000000
    18  H    0.000000   0.000000   0.000000   0.000000   0.000000   0.000000
    19  H    0.000000   0.000000   0.000000   0.000000   0.000000   0.000000
    20  H    0.000000   0.000000   0.000000   0.000000   0.000000   0.000000
    21  O    0.000000   0.000000   0.000000   0.000000   0.000000   0.000000
    22  O    0.000000   0.000000   0.000000   0.000000   0.000000   0.000000
    23  O    0.000000   0.000000   0.000000   0.000000   0.000000   0.000000
    24  O    0.000000   0.000000   0.000000   0.000000   0.000000   0.000000
              13         14         15         16         17         18
     1  O    0.000000   0.000000   0.000000   0.000000   0.000000   0.000000
     2  C    0.000000   0.000000   0.000000   0.000000   0.000000   0.000000
     3  C    0.000000   0.000000   0.000000   0.000000   0.000000   0.000000
     4  C    0.000000   0.000000   0.000000   0.000000   0.000000   0.000000
     5  C    0.000000   0.000000   0.000000   0.000000   0.000000   0.000000
     6  C    0.000000   0.000000   0.000000   0.000000   0.000000   0.000000
     7  H    0.000000   0.000000   0.000000   0.000000   0.000000   0.000000
     8  C    0.000000   0.000000   0.000000   0.000000   0.000000   0.000000
     9  O    0.000000   0.000000   0.000000   0.000000   0.000000   0.000000
    10  C    0.000000   0.000000   0.000000   0.000000   0.000000   0.000000
    11  H    0.000000   0.000000   0.000000   0.000000   0.000000   0.000000
    12  H    0.000000   0.000000   0.000000   0.000000   0.000000   0.000000
    13  H   -0.000734   0.000000   0.000000   0.000000   0.000000   0.000000
    14  H    0.000000  -0.000308   0.000000   0.000000   0.000000   0.000000
    15  H    0.000000   0.000000   0.000015   0.000000   0.000000   0.000000
    16  H    0.000000   0.000000   0.000000   0.000020   0.000000   0.000000
    17  H    0.000000   0.000000   0.000000   0.000000  -0.000010   0.000000
    18  H    0.000000   0.000000   0.000000   0.000000   0.000000   0.000000
    19  H    0.000000   0.000000   0.000000   0.000000   0.000000   0.000000
    20  H    0.000000   0.000000   0.000000   0.000000   0.000000   0.000000
    21  O    0.000000   0.000000   0.000000   0.000000   0.000000   0.000000
    22  O    0.000000   0.000000   0.000000   0.000000   0.000000   0.000000
    23  O    0.000000   0.000000   0.000000   0.000000   0.000000   0.000000
    24  O    0.000000   0.000000   0.000000   0.000000   0.000000   0.000000
              19         20         21         22         23         24
     1  O    0.000000   0.000000   0.000000   0.000000   0.000000   0.000000
     2  C    0.000000   0.000000   0.000000   0.000000   0.000000   0.000000
     3  C    0.000000   0.000000   0.000000   0.000000   0.000000   0.000000
     4  C    0.000000   0.000000   0.000000   0.000000   0.000000   0.000000
     5  C    0.000000   0.000000   0.000000   0.000000   0.000000   0.000000
     6  C    0.000000   0.000000   0.000000   0.000000   0.000000   0.000000
     7  H    0.000000   0.000000   0.000000   0.000000   0.000000   0.000000
     8  C    0.000000   0.000000   0.000000   0.000000   0.000000   0.000000
     9  O    0.000000   0.000000   0.000000   0.000000   0.000000   0.000000
    10  C    0.000000   0.000000   0.000000   0.000000   0.000000   0.000000
    11  H    0.000000   0.000000   0.000000   0.000000   0.000000   0.000000
    12  H    0.000000   0.000000   0.000000   0.000000   0.000000   0.000000
    13  H    0.000000   0.000000   0.000000   0.000000   0.000000   0.000000
    14  H    0.000000   0.000000   0.000000   0.000000   0.000000   0.000000
    15  H    0.000000   0.000000   0.000000   0.000000   0.000000   0.000000
    16  H    0.000000   0.000000   0.000000   0.000000   0.000000   0.000000
    17  H    0.000000   0.000000   0.000000   0.000000   0.000000   0.000000
    18  H    0.000000   0.000000   0.000000   0.000000   0.000000   0.000000
    19  H    0.000000   0.000000   0.000000   0.000000   0.000000   0.000000
    20  H    0.000000   0.000000   0.000000   0.000000   0.000000   0.000000
    21  O    0.000000   0.000000  -0.000008   0.000000   0.000000   0.000000
    22  O    0.000000   0.000000   0.000000  -0.000001   0.000000   0.000000
    23  O    0.000000   0.000000   0.000000   0.000000   0.719385   0.000000
    24  O    0.000000   0.000000   0.000000   0.000000   0.000000   0.366529
 Mulliken charges and spin densities:
               1          2
     1  O   -0.398993   0.006877
     2  C    0.501850  -0.079448
     3  C   -0.428121  -0.012079
     4  C   -0.193674  -0.000288
     5  C   -0.320844  -0.000093
     6  C   -0.065579  -0.000002
     7  H    0.168842   0.000001
     8  C    0.555336   0.000002
     9  O   -0.456220  -0.000002
    10  C   -0.636302   0.000000
    11  H    0.287397   0.000001
    12  H    0.207081   0.000142
    13  H    0.187323  -0.000734
    14  H    0.155449  -0.000308
    15  H    0.139420   0.000015
    16  H    0.152458   0.000020
    17  H    0.169872  -0.000010
    18  H    0.199375   0.000000
    19  H    0.200882   0.000000
    20  H    0.210551   0.000000
    21  O   -0.188841  -0.000008
    22  O   -0.294347  -0.000001
    23  O   -0.169373   0.719385
    24  O    0.016457   0.366529
 Sum of Mulliken charges =   0.00000   1.00000
 Mulliken charges and spin densities with hydrogens summed into heavy atoms:
               1          2
     1  O   -0.398993   0.006877
     2  C    0.501850  -0.079448
     3  C   -0.033718  -0.012670
     4  C    0.101195  -0.000580
     5  C    0.001486  -0.000084
     6  C    0.103264  -0.000001
     8  C    0.555336   0.000002
     9  O   -0.456220  -0.000002
    10  C   -0.025494   0.000000
    21  O   -0.188841  -0.000008
    22  O   -0.006950  -0.000001
    23  O   -0.169373   0.719385
    24  O    0.016457   0.366529
 APT charges:
               1
     1  O   -0.766825
     2  C    1.200179
     3  C   -0.659817
     4  C   -0.103115
     5  C   -0.371364
     6  C   -0.061653
     7  H    0.138505
     8  C    1.192851
     9  O   -0.760881
    10  C   -0.994469
    11  H    0.272721
    12  H    0.219131
    13  H    0.207003
    14  H    0.143349
    15  H    0.119786
    16  H    0.134876
    17  H    0.155366
    18  H    0.247684
    19  H    0.243939
    20  H    0.255428
    21  O   -0.109358
    22  O   -0.372023
    23  O   -0.149324
    24  O   -0.182090
 Sum of APT charges =  -0.00010
 APT charges with hydrogens summed into heavy atoms:
               1
     1  O   -0.766825
     2  C    1.200179
     3  C   -0.233682
     4  C    0.160020
     5  C   -0.081121
     6  C    0.076852
     8  C    1.192851
     9  O   -0.760881
    10  C   -0.247417
    21  O   -0.109358
    22  O   -0.099303
    23  O   -0.149324
    24  O   -0.182090
 Charge=              0.0000 electrons
 Dipole moment (field-independent basis, Debye):
    X=             -2.4560    Y=             -0.4094    Z=             -0.2618  Tot=              2.5036
 N-N= 5.161785618992D+02 E-N=-9.360395396750D+02  KE=-4.420899361999D+01
  Exact polarizability:  75.196   0.489  56.738 -11.877   5.136 100.370
 Approx polarizability:  51.368  -1.200  41.144 -15.450   5.378  78.237
 Leave Link  601 at Thu Feb  4 14:28:41 2021, MaxMem=    33554432 cpu:         0.0
 (Enter /apps/applications/gaussian/G09.D01/2/default/g09/l701.exe)
 Compute integral second derivatives.
 ... and contract with generalized density number  0.
 Leave Link  701 at Thu Feb  4 14:28:41 2021, MaxMem=    33554432 cpu:         0.1
 (Enter /apps/applications/gaussian/G09.D01/2/default/g09/l702.exe)
 L702 exits ... SP integral derivatives will be done elsewhere.
 Leave Link  702 at Thu Feb  4 14:28:41 2021, MaxMem=    33554432 cpu:         0.0
 (Enter /apps/applications/gaussian/G09.D01/2/default/g09/l703.exe)
 Compute integral second derivatives, UseDBF=F ICtDFT=           0.
 Integral derivatives from FoFJK, PRISM(SPDF).
 Calling FoFJK, ICntrl=    100127 FMM=F ISym2X=0 I1Cent= 0 IOpClX= 1 NMat=1 NMatS=1 NMatT=0.
 FoFJK:  IHMeth=40 ICntrl=  100127 DoSepK=F KAlg= 0 I1Cent=   0 FoldK=F
 IRaf=         0 NMat=   1 IRICut=       1 DoRegI=T DoRafI=F ISym2E= 0.
 FoFCou: FMM=F IPFlag=           0 FMFlag=      100000 FMFlg1=         800
         NFxFlg=           0 DoJE=F BraDBF=F KetDBF=F FulRan=T
         wScrn=  0.000000 ICntrl=  100127 IOpCl=  1 I1Cent=           0 NGrid=           0
         NMat0=    1 NMatS0=      1 NMatT0=    0 NMatD0=    1 NMtDS0=    0 NMtDT0=    0
 Symmetry not used in FoFCou.
 Leave Link  703 at Thu Feb  4 14:28:41 2021, MaxMem=    33554432 cpu:         0.1
 (Enter /apps/applications/gaussian/G09.D01/2/default/g09/l716.exe)
 Dipole        =-9.66270673D-01-1.61084809D-01-1.02982690D-01
 Polarizability= 7.51957911D+01 4.88993628D-01 5.67381961D+01
                -1.18770160D+01 5.13559128D+00 1.00369953D+02
 HyperPolar    =-1.04301300D+01-2.96714749D+00-2.73713158D+01
                -1.50336415D+01 8.40430603D+01 7.98989235D+00
                 2.49893747D+01-7.25446191D+01-1.91963287D+01
                 1.91308131D+01
 -------------------------------------------------------------------
 Center     Atomic                   Forces (Hartrees/Bohr)
 Number     Number              X              Y              Z
 -------------------------------------------------------------------
      1        8           0.001177503    0.000543822    0.000045267
      2        6          -0.021694256   -0.023815546    0.013190456
      3        6           0.000036967   -0.000430306   -0.000083517
      4        6          -0.000023935    0.000229655    0.000101687
      5        6           0.000337646    0.000257115    0.000272235
      6        6           0.000329814   -0.000783096    0.000141343
      7        1           0.000269104   -0.001453830    0.000281656
      8        6          -0.000776820    0.000596791   -0.000015914
      9        8          -0.000816182    0.000861216    0.000400185
     10        6          -0.000590972    0.000480483   -0.000777020
     11        1          -0.000113399    0.000187094   -0.000149813
     12        1          -0.000065604    0.000075216   -0.000641051
     13        1           0.001097125   -0.000248417    0.001580279
     14        1          -0.000008680   -0.000009473   -0.000316006
     15        1           0.000712848    0.000112929    0.000511841
     16        1          -0.000254559    0.001152531   -0.000431854
     17        1          -0.000604886    0.000103347   -0.000548473
     18        1          -0.000300306    0.000708466   -0.000884258
     19        1           0.000225703   -0.000593187   -0.000274804
     20        1           0.000062092   -0.000693754    0.000049412
     21        8           0.000826098   -0.000492720    0.000853709
     22        8           0.000425387    0.000832554   -0.000275430
     23        8          -0.000406449    0.000528112   -0.000435434
     24        8           0.020155762    0.021850998   -0.012594495
 -------------------------------------------------------------------
 Cartesian Forces:  Max     0.023815546 RMS     0.005622422
 Leave Link  716 at Thu Feb  4 14:28:41 2021, MaxMem=    33554432 cpu:         0.0
 (Enter /apps/applications/gaussian/G09.D01/2/default/g09/l103.exe)

 GradGradGradGradGradGradGradGradGradGradGradGradGradGradGradGradGradGrad
 Berny optimization.
 Search for a saddle point.
 Step number   1 out of a maximum of  100
 All quantities printed in internal units (Hartrees-Bohrs-Radians)
 Swapping is turned off.
 Second derivative matrix not updated -- analytic derivatives used.
 ITU=  0
     Eigenvalues ---   -0.00457  -0.00063  -0.00011  -0.00002   0.00003
     Eigenvalues ---    0.00022   0.00076   0.00264   0.00386   0.00466
     Eigenvalues ---    0.00568   0.00765   0.01459   0.01669   0.01953
     Eigenvalues ---    0.02347   0.03346   0.03841   0.04152   0.04397
     Eigenvalues ---    0.04558   0.04622   0.04855   0.05329   0.05572
     Eigenvalues ---    0.05990   0.06297   0.06593   0.07610   0.07893
     Eigenvalues ---    0.08271   0.08887   0.09775   0.11872   0.12090
     Eigenvalues ---    0.14082   0.15036   0.15832   0.18378   0.19096
     Eigenvalues ---    0.20330   0.22616   0.25037   0.26377   0.31060
     Eigenvalues ---    0.36476   0.44740   0.48216   0.49978   0.51676
     Eigenvalues ---    0.54937   0.55554   0.56726   0.58190   0.59308
     Eigenvalues ---    0.60335   0.62347   0.63086   0.64738   0.66879
     Eigenvalues ---    0.68238   0.69956   0.72311   0.74690   1.68056
     Eigenvalues ---    1.77370
 Eigenvectors required to have negative eigenvalues:
                          X24       Y24       X1        Y1        X23
   1                    0.63553  -0.36975  -0.31189   0.27830   0.25919
                          Y12       Y23       Y22       Z24       X7
   1                    0.13984  -0.13733  -0.11985   0.11846  -0.11581
 Eigenvalue     2 is  -6.32D-04 should be greater than     0.000000 Eigenvector:
                          Z13       Y1        Z24       Y23       Z23
   1                    0.33906   0.30141  -0.28215  -0.27411  -0.23992
                          Y11       Y12       Y22       Y19       Y18
   1                   -0.23116  -0.22656  -0.20439   0.19524   0.19470
 Eigenvalue     3 is  -1.07D-04 should be greater than     0.000000 Eigenvector:
                          Z18       Y18       Y19       Y20       Z19
   1                    0.37596   0.29167   0.28610  -0.27411  -0.26608
                          X18       Z17       Z15       X14       Z14
   1                   -0.23588  -0.18846  -0.18004   0.17184  -0.17128
 Eigenvalue     4 is  -2.31D-05 should be greater than     0.000000 Eigenvector:
                          Y20       X19       Z18       Z19       Z14
   1                    0.53363  -0.30180  -0.29305   0.28876  -0.20719
                          Z15       X14       Z13       X12       Y1
   1                   -0.20412   0.18936   0.18254   0.15712   0.15091
 RFO step:  Lambda0=1.626791701D-04 Lambda=-5.16335956D-03.
 Linear search not attempted -- option 19 set.
 Maximum step size (   0.300) exceeded in Quadratic search.
    -- Step size scaled by   0.294
 TrRot=  0.003841  0.005643  0.013264  0.681644 -0.002246 -0.681273
 Variable       Old X    -DE/DX   Delta X   Delta X   Delta X     New X
                                 (Linear)    (Quad)   (Total)
    X1       -3.25215   0.00118   0.00000  -0.00900  -0.01954  -3.27169
    Y1        4.90738   0.00054   0.00000  -0.08156  -0.08735   4.82003
    Z1        7.18870   0.00005   0.00000   0.03511   0.04950   7.23820
    X2       -3.23515  -0.02169   0.00000  -0.01123  -0.01776  -3.25290
    Y2        4.55907  -0.02382   0.00000  -0.03986  -0.04247   4.51660
    Z2        4.95313   0.01319   0.00000   0.03131   0.04529   4.99842
    X3       -4.58848   0.00004   0.00000   0.01680   0.01386  -4.57462
    Y3        2.67785  -0.00043   0.00000  -0.00761  -0.00836   2.66950
    Z3        3.34046  -0.00008   0.00000  -0.01953  -0.01048   3.32998
    X4       -7.41093  -0.00002   0.00000   0.01794   0.01522  -7.39571
    Y4        3.30418   0.00023   0.00000  -0.00424  -0.00567   3.29850
    Z4        3.09381   0.00010   0.00000  -0.02806  -0.02303   3.07078
    X5       -7.85385   0.00034   0.00000   0.02437   0.02161  -7.83224
    Y5        6.11370   0.00026   0.00000  -0.00636  -0.00713   6.10657
    Z5        2.53183   0.00027   0.00000  -0.04402  -0.03578   2.49605
    X6      -10.28650   0.00033   0.00000   0.00853   0.00809 -10.27840
    Y6        6.62673  -0.00078   0.00000  -0.01001  -0.00966   6.61707
    Z6        1.06949   0.00014   0.00000  -0.01968  -0.01499   1.05450
    X7      -10.64256   0.00027   0.00000   0.01775   0.01685 -10.62571
    Y7        8.70492  -0.00145   0.00000  -0.00998  -0.00951   8.69540
    Z7        0.91118   0.00028   0.00000  -0.03155  -0.02452   0.88665
    X8      -10.32241  -0.00078   0.00000  -0.03231  -0.02765 -10.35005
    Y8        5.43130   0.00060   0.00000  -0.02519  -0.02109   5.41021
    Z8       -1.60249  -0.00002   0.00000  -0.01148  -0.00863  -1.61111
    X9       -8.46093  -0.00082   0.00000  -0.04772  -0.04108  -8.50201
    Y9        4.48899   0.00086   0.00000  -0.04368  -0.03758   4.45140
    Z9       -2.52179   0.00040   0.00000  -0.02381  -0.01910  -2.54089
   X10      -12.81096  -0.00059   0.00000  -0.04259  -0.03575 -12.84671
   Y10        5.62999   0.00048   0.00000  -0.01897  -0.01397   5.61603
   Z10       -2.91383  -0.00078   0.00000   0.00840   0.00718  -2.90665
   X11      -12.91458  -0.00011   0.00000   0.01650   0.00802 -12.90656
   Y11        6.41111   0.00019   0.00000   0.09431   0.08714   6.49825
   Z11        5.68639  -0.00015   0.00000   0.00113   0.00108   5.68747
   X12       -3.71249  -0.00007   0.00000   0.03342   0.03383  -3.67866
   Y12        2.63136   0.00008   0.00000   0.03172   0.03401   2.66537
   Z12        1.41519  -0.00064   0.00000  -0.01311  -0.00251   1.41268
   X13       -4.36190   0.00110   0.00000   0.01735   0.01386  -4.34804
   Y13        0.73923  -0.00025   0.00000  -0.01960  -0.02130   0.71793
   Z13        4.10083   0.00158   0.00000  -0.04556  -0.03887   4.06196
   X14       -8.20548  -0.00001   0.00000   0.01941   0.01982  -8.18566
   Y14        2.11968  -0.00001   0.00000  -0.00918  -0.00873   2.11095
   Z14        1.55220  -0.00032   0.00000  -0.02545  -0.02348   1.52871
   X15       -8.45102   0.00071   0.00000   0.01641   0.01088  -8.44014
   Y15        2.74850   0.00011   0.00000   0.00629   0.00203   2.75053
   Z15        4.82182   0.00051   0.00000  -0.02538  -0.02295   4.79887
   X16       -7.88544  -0.00025   0.00000   0.04513   0.03885  -7.84659
   Y16        7.17946   0.00115   0.00000   0.01277   0.00945   7.18891
   Z16        4.33498  -0.00043   0.00000  -0.05467  -0.04493   4.29005
   X17       -6.23713  -0.00060   0.00000   0.01482   0.01376  -6.22337
   Y17        6.88279   0.00010   0.00000  -0.02147  -0.02005   6.86274
   Z17        1.42311  -0.00055   0.00000  -0.06813  -0.05602   1.36709
   X18      -12.88729  -0.00030   0.00000  -0.06257  -0.05436 -12.94165
   Y18        7.33765   0.00071   0.00000  -0.00229   0.00431   7.34196
   Z18       -4.09253  -0.00088   0.00000   0.03257   0.03363  -4.05890
   X19      -13.14740   0.00023   0.00000  -0.04016  -0.03047 -13.17787
   Y19        4.02133  -0.00059   0.00000  -0.00483   0.00188   4.02321
   Z19       -4.18335  -0.00027   0.00000  -0.01132  -0.01537  -4.19872
   X20      -14.41371   0.00006   0.00000  -0.03118  -0.02671 -14.44042
   Y20        5.74147  -0.00069   0.00000  -0.04943  -0.04692   5.69455
   Z20       -1.58331   0.00005   0.00000   0.02417   0.02029  -1.56302
   X21      -12.45034   0.00083   0.00000   0.02311   0.02087 -12.42946
   Y21        5.45431  -0.00049   0.00000   0.01401   0.01176   5.46607
   Z21        2.30549   0.00085   0.00000   0.02634   0.02565   2.33114
   X22      -13.42254   0.00043   0.00000   0.03174   0.02586 -13.39669
   Y22        7.23472   0.00083   0.00000   0.06485   0.05984   7.29455
   Z22        4.05032  -0.00028   0.00000  -0.01826  -0.01805   4.03227
   X23       -1.34819  -0.00041   0.00000  -0.00772  -0.00864  -1.35684
   Y23        6.00985   0.00053   0.00000   0.09578   0.09890   6.10875
   Z23        1.36467  -0.00044   0.00000   0.06587   0.08540   1.45008
   X24       -1.68546   0.02016   0.00000   0.00553   0.00058  -1.68488
   Y24        6.39940   0.02185   0.00000   0.03068   0.03050   6.42990
   Z24        3.60339  -0.01259   0.00000   0.07128   0.09070   3.69409
         Item               Value     Threshold  Converged?
 Maximum Force            0.023816     0.000450     NO 
 RMS     Force            0.005622     0.000300     NO 
 Maximum Displacement     0.098896     0.001800     NO 
 RMS     Displacement     0.034777     0.001200     NO 
 Predicted change in Energy=-1.476969D-03
 Lowest energy point so far.  Saving SCF results.
 GradGradGradGradGradGradGradGradGradGradGradGradGradGradGradGradGradGrad

 Leave Link  103 at Thu Feb  4 14:28:41 2021, MaxMem=    33554432 cpu:         0.0
 (Enter /apps/applications/gaussian/G09.D01/2/default/g09/l202.exe)
                          Input orientation:                          
 ---------------------------------------------------------------------
 Center     Atomic      Atomic             Coordinates (Angstroms)
 Number     Number       Type             X           Y           Z
 ---------------------------------------------------------------------
      1          8           0       -1.731304    2.550651    3.830291
      2          6           0       -1.721363    2.390083    2.645050
      3          6           0       -2.420783    1.412636    1.762151
      4          6           0       -3.913643    1.745492    1.624985
      5          6           0       -4.144641    3.231456    1.320855
      6          6           0       -5.439097    3.501603    0.558017
      7          1           0       -5.622886    4.601409    0.469196
      8          6           0       -5.477013    2.862958   -0.852565
      9          8           0       -4.499070    2.355581   -1.344582
     10          6           0       -6.798186    2.971873   -1.538132
     11          1           0       -6.829855    3.438726    3.009679
     12          1           0       -1.946661    1.410453    0.747560
     13          1           0       -2.300883    0.379912    2.149497
     14          1           0       -4.331663    1.117068    0.808960
     15          1           0       -4.466332    1.455515    2.539452
     16          1           0       -4.152235    3.804208    2.270199
     17          1           0       -3.293267    3.631607    0.723431
     18          1           0       -6.848425    3.885197   -2.147878
     19          1           0       -6.973428    2.128990   -2.221866
     20          1           0       -7.641542    3.013425   -0.827116
     21          8           0       -6.577388    2.892520    1.233587
     22          8           0       -7.089222    3.860111    2.133785
     23          8           0       -0.718006    3.232610    0.767347
     24          8           0       -0.891602    3.402554    1.954826
 ---------------------------------------------------------------------
                    Distance matrix (angstroms):
                    1          2          3          4          5
     1  O    0.000000
     2  C    1.196110   0.000000
     3  C    2.459200   1.491342   0.000000
     4  C    3.205348   2.502423   1.535655   0.000000
     5  C    3.547529   2.886811   2.544511   1.534258   0.000000
     6  C    5.035853   4.405988   3.863152   2.559171   1.526603
     7  H    5.535971   4.984594   4.700369   3.523297   2.187990
     8  C    6.004749   5.153816   4.275595   3.135460   2.575802
     9  O    5.871788   4.861482   3.854894   3.087598   2.827955
    10  C    7.393963   6.603910   5.699539   4.453079   3.909283
    11  H    5.239972   5.227743   5.010118   3.645369   3.178909
    12  H    3.293883   2.147301   1.119907   2.179711   2.911328
    13  H    2.803854   2.149931   1.109474   2.177364   3.495339
    14  H    4.236210   3.435908   2.155783   1.111555   2.183495
    15  H    3.216514   2.901624   2.188677   1.107160   2.177713
    16  H    3.141051   2.837147   2.995940   2.170609   1.108764
    17  H    3.641535   2.775767   2.600769   2.180619   1.114393
    18  H    7.981506   7.175952   6.403585   5.236963   4.446339
    19  H    8.017871   7.165139   6.091972   4.930275   4.665655
    20  H    7.538999   6.891517   6.043439   4.638716   4.109700
    21  O    5.508564   5.081895   4.443738   2.926501   2.457795
    22  O    5.770624   5.588943   5.284181   3.849000   3.118753
    23  O    3.297494   2.289617   2.683540   3.627555   3.471051
    24  O    2.224457   1.479868   2.517001   3.462280   3.318653
                    6          7          8          9         10
     6  C    0.000000
     7  H    1.118589   0.000000
     8  C    1.548885   2.188731   0.000000
     9  O    2.411825   3.097822   1.206601   0.000000
    10  C    2.553738   2.840086   1.492436   2.388141   0.000000
    11  H    2.819364   3.043462   4.132628   5.056219   4.571820
    12  H    4.075039   4.875891   4.139269   3.432945   5.585671
    13  H    4.703844   5.628512   5.026499   4.576448   6.367308
    14  H    2.641096   3.731398   2.668449   2.489916   3.877226
    15  H    3.009790   3.939572   3.808957   3.987093   4.935948
    16  H    2.163134   2.458038   3.520318   3.909662   4.711393
    17  H    2.156118   2.536193   2.800594   2.712725   4.223076
    18  H    3.074933   2.977244   2.145595   2.916244   1.099307
    19  H    3.459188   3.895976   2.157070   2.635037   1.099387
    20  H    2.647201   2.876993   2.169902   3.252025   1.103866
    21  O    1.457081   2.101350   2.358756   3.354798   2.781632
    22  O    2.309651   2.338914   3.537205   4.590375   3.789017
    23  O    4.733378   5.101015   5.040724   4.418808   6.507827
    24  O    4.758214   5.101902   5.403573   4.999607   6.875608
                   11         12         13         14         15
    11  H    0.000000
    12  H    5.751231   0.000000
    13  H    5.532436   1.775644   0.000000
    14  H    4.058845   2.403764   2.542540   0.000000
    15  H    3.120974   3.092192   2.449113   1.768414   0.000000
    16  H    2.801796   3.593473   3.894596   3.064007   2.384851
    17  H    4.215636   2.597587   3.686734   2.721854   3.067473
    18  H    5.176879   6.207673   7.171791   4.768597   5.792131
    19  H    5.394912   5.882361   6.633307   4.145939   5.423029
    20  H    3.944707   6.122156   6.657195   4.150688   4.882911
    21  O    1.875256   4.886346   5.043866   2.894101   2.868245
    22  O    1.005995   5.862455   5.919478   4.108963   3.581368
    23  O    6.513466   2.197781   3.543123   4.187573   4.510917
    24  O    6.031325   2.557169   3.340709   4.286080   4.112353
                   16         17         18         19         20
    16  H    0.000000
    17  H    1.777669   0.000000
    18  H    5.176427   4.576883   0.000000
[...]
 61,0.00249972,0.00155312,-0.03313793,0.00526271,0.00997565,-0.00635575
 ,-0.00622518,-0.02725714,0.00012588,0.00009296,-0.00048982,-0.00203348
 ,0.00126896,-0.00115216,0.00003459,-0.00018353,0.00028471,-0.00009424,
 -0.00049928,-0.00012408,-0.00016741,0.00004446,0.00005167,0.00004152,0
 .00009120,0.00006607,0.00001685,0.00001497,0.00000264,0.00005281,-0.00
 000623,-0.00006199,0.00060219,-0.00012552,0.00001936,0.04027584,-0.000
 12384,-0.00011337,-0.00003851,0.00041817,0.00023139,0.00021847,-0.0002
 8068,-0.00108284,0.00009294,0.00457787,-0.03159140,-0.02059186,0.00379
 029,-0.07466724,-0.07520473,-0.00186231,0.00406245,-0.00053291,0.00032
 403,0.00044852,0.00062339,0.00086711,-0.00014571,-0.00018750,-0.000206
 66,-0.00001839,0.00022308,0.00012351,0.00023552,0.00034399,0.00004266,
 0.00017734,0.00016329,-0.00001837,-0.00005337,0.00000690,0.00018646,-0
 .00011705,-0.00003179,-0.00002287,-0.00217409,0.00029068,-0.00005389,-
 0.00064818,-0.00015682,-0.00740973,0.10120088,-0.00005618,0.00004093,-
 0.00061394,0.00025928,-0.00009262,0.00100735,-0.00032735,0.00046331,-0
 .00009123,0.00124901,-0.00762124,0.00140263,0.00617932,-0.07718144,-0.
 16911081,-0.01425676,-0.00521414,-0.02499927,-0.00041617,0.00049891,-0
 .00048608,-0.00128883,0.00007406,-0.00133792,0.00001931,0.00005076,0.0
 0042533,0.00019933,-0.00005146,0.00004802,0.00005543,0.00009977,0.0002
 9096,0.00009162,-0.00010700,-0.00006905,-0.00003943,-0.00006947,-0.000
 01812,-0.00006363,0.00028178,-0.00007071,-0.00011903,0.00074674,0.0010
 5971,-0.00055303,0.09326458,0.20900655,-0.00034516,-0.00086341,0.00103
 874,0.00139806,0.00219709,-0.00144339,-0.00098319,0.00077570,-0.000004
 60,0.00165930,-0.00873837,0.00315718,-0.14137272,-0.04942438,0.0660407
 0,-0.03822387,-0.00419223,0.00119294,-0.00071747,0.00069680,-0.0000819
 4,-0.00031110,-0.00109689,-0.00285068,-0.00098929,0.00005794,0.0007365
 9,0.00020032,0.00040900,0.00060296,-0.00015192,-0.00002423,0.00001117,
 0.00035771,0.00052298,0.00017622,-0.00011415,0.00012638,0.00000470,-0.
 00023843,-0.00002415,-0.00009527,-0.00004780,0.00005165,0.00015272,-0.
 00282071,0.00018527,0.00900840,0.18523439,-0.00025345,-0.00018070,-0.0
 0025429,0.00113065,0.00007752,0.00110255,0.00048744,-0.00273759,0.0005
 3724,-0.01879276,-0.02445532,0.01641049,-0.04822897,-0.05370721,0.0289
 5780,-0.00046382,0.00386955,-0.00085388,0.00079614,0.00032258,0.000001
 35,-0.00050004,0.00020622,-0.00085969,-0.00002091,-0.00053126,0.000250
 49,0.00005325,0.00003517,0.00016560,0.00000066,0.00014260,0.00014284,0
 .00072705,-0.00082967,-0.00050754,-0.00019478,-0.00007367,0.00001658,-
 0.00004641,-0.00142884,0.00038221,0.00002945,-0.00207603,0.00042932,0.
 00519069,0.00482673,-0.00465505,0.05893662,0.07735520,0.00007740,0.000
 12847,-0.00026656,-0.00060439,0.00039304,0.00022210,-0.00003721,0.0008
 4654,-0.00021307,0.00439352,0.00982131,-0.00123127,0.06805898,0.029335
 79,-0.07239455,-0.01030136,-0.00283584,0.00656986,-0.00025279,-0.00007
 302,0.00036729,-0.00403735,-0.00042268,0.00074761,0.00233593,0.0003927
 0,-0.00010221,0.00072729,0.00016826,-0.00028904,-0.00002286,-0.0000959
 8,-0.00020575,0.00008535,-0.00027121,0.00042868,0.00003725,-0.00005607
 ,0.00008241,0.00011060,0.00009505,0.00008341,0.00007171,0.00038201,-0.
 00008876,0.01771614,0.00195100,-0.01588522,-0.07591058,-0.04100078,0.0
 8356110,0.00006541,-0.00004086,0.00016052,-0.00014225,0.00004845,-0.00
 024502,0.00011749,-0.00011728,0.00011465,-0.00000978,0.00004710,0.0001
 1818,-0.00022062,0.00026518,0.00070123,0.00092253,-0.00087682,-0.00078
 804,-0.00004086,-0.00027842,-0.00009767,-0.04032059,0.00786652,-0.0074
 0812,0.00031340,-0.00208234,-0.00004273,-0.14229171,0.09073169,0.00107
 608,0.00009642,-0.00008772,-0.00012398,-0.00006301,0.00005249,-0.00006
 030,-0.00000701,0.00004493,-0.00001429,-0.00000830,0.00003365,-0.00010
 250,0.00002838,0.00001637,-0.00005425,0.00011445,-0.00008064,-0.000019
 12,-0.00012545,-0.00003732,-0.00009307,0.18239120,-0.00004042,-0.00003
 177,-0.00003251,0.00009224,0.00007560,0.00006338,-0.00005024,-0.000056
 72,-0.00004933,-0.00007116,-0.00003073,-0.00007377,0.00013106,-0.00004
 355,-0.00009490,-0.00041842,-0.00148637,0.00002887,-0.00030143,0.00005
 603,-0.00050593,-0.00212135,0.01129277,-0.00018603,-0.00251720,-0.0026
 6018,0.00096212,0.09014719,-0.10374974,-0.00349314,0.00007397,0.000076
 79,0.00006888,0.00003397,0.00001018,0.00002943,0.00002257,0.00000946,0
 .00001411,0.00008451,0.00003372,0.00009050,0.00000731,0.00001217,0.000
 02647,-0.00000422,0.00002575,0.00000631,0.00002381,0.00002961,0.000065
 93,-0.10746499,0.12037759,0.00004635,0.00001819,0.00000809,-0.00011760
 ,-0.00004502,-0.00004622,0.00013552,-0.00003332,-0.00005600,0.00000904
 ,0.00006183,0.00002494,0.00035496,0.00007713,-0.00006494,-0.00119533,-
 0.00141692,-0.00036728,-0.00018188,-0.00018634,-0.00021822,-0.00794361
 ,0.00548392,0.00504122,-0.00065557,-0.00107161,-0.00064101,-0.00128211
 ,-0.00266281,-0.03422569,0.00031041,-0.00014671,-0.00001770,-0.0000181
 4,0.00000184,0.00005792,-0.00001251,0.00001810,0.00002386,-0.00008623,
 0.00001975,0.00001484,-0.00003450,0.00000296,-0.00002272,-0.00003020,-
 0.00003581,-0.00001233,-0.00003940,-0.00005257,0.00010637,0.00389447,0
 .00229323,0.03298234,0.00002766,-0.00000306,0.00007304,-0.00004846,-0.
 00001599,-0.00010121,-0.00000810,0.00005683,0.00013795,0.00007818,0.00
 001632,0.00009965,-0.00003742,-0.00017528,-0.00022462,-0.00212154,-0.0
 0160850,-0.00101171,0.00002674,-0.00003934,-0.00021877,-0.00264402,-0.
 01466883,-0.02574960,0.00000862,0.00088896,0.00116119,-0.03812864,0.00
 712051,0.01744110,0.00001447,0.00001113,0.00001301,-0.00003548,-0.0000
 1585,-0.00010552,-0.00001601,-0.00000256,-0.00004847,-0.00002317,-0.00
 002674,-0.00012088,0.00001073,0.00000085,-0.00001557,-0.00004568,0.000
 02669,-0.00002888,0.00006460,-0.00001327,-0.00004506,-0.00292657,0.009
 53908,0.01466217,0.04312472,-0.00001828,-0.00005744,0.00003094,0.00005
 174,0.00010967,-0.00002913,0.00000086,-0.00014586,-0.00001883,-0.00004
 371,-0.00003810,-0.00002511,-0.00002438,-0.00012701,-0.00016384,-0.001
 00701,0.00001125,-0.00084853,-0.00002684,0.00003724,-0.00005195,-0.010
 18681,-0.00722830,-0.01851400,0.00153948,-0.00030902,0.00014819,0.0060
 5046,-0.06194381,-0.06262365,0.00003412,0.00000371,-0.00003857,0.00000
 954,0.00006377,0.00000281,0.00002485,0.00004769,0.00002999,0.00003321,
 0.00007549,0.00006722,0.00000427,0.00001437,0.00000659,-0.00003005,0.0
 0000976,-0.00002765,-0.00000223,0.00002089,-0.00003205,0.00760210,-0.0
 0619784,-0.01505706,-0.00140266,0.06970854,0.00008249,-0.00000712,0.00
 010671,-0.00018402,-0.00001513,-0.00017993,0.00016924,-0.00008495,0.00
 003980,0.00003838,0.00006855,0.00013518,0.00004611,0.00011396,0.000207
 44,0.00032669,-0.00017719,-0.00032597,0.00001656,-0.00014378,0.0000234
 6,-0.01587728,-0.01467868,-0.01366178,0.00254371,0.00069010,-0.0016235
 4,0.01519727,-0.06323363,-0.19130967,0.00005052,-0.00006065,-0.0000894
 0,-0.00007679,0.00004309,-0.00000849,-0.00002785,0.00004484,0.00000862
 ,-0.00008874,0.00000642,-0.00011908,-0.00000357,0.00000846,-0.00005077
 ,0.00000076,-0.00004877,-0.00003015,-0.00008312,-0.00004662,-0.0000453
 9,0.00527544,-0.00617462,-0.00282873,-0.01228998,0.08344435,0.23013903
 ,0.00008750,-0.00000704,0.00016262,-0.00018979,-0.00003170,-0.00025175
 ,0.00014040,0.00000610,0.00013641,0.00008396,0.00003308,0.00023013,-0.
 00011778,0.00000701,0.00013719,-0.00013904,0.00101595,-0.00122509,0.00
 002224,0.00000159,0.00041662,-0.01494550,-0.02767726,0.01042116,-0.002
 66263,0.00117520,-0.00117905,-0.04008832,-0.03371361,0.02789456,0.0000
 5066,0.00007190,-0.00010583,-0.00009130,-0.00001150,-0.00005644,-0.000
 03981,0.00003456,-0.00004222,-0.00025370,0.00005664,-0.00043738,0.0000
 3400,0.00002029,-0.00008743,-0.00000193,-0.00003520,-0.00004338,-0.000
 06642,-0.00003076,-0.00005654,0.00297125,0.01293959,-0.00810575,0.0028
 3468,-0.00244358,0.00508637,0.05296509,-0.00002051,-0.00009801,0.00007
 246,0.00005003,0.00018667,-0.00009956,0.00003452,-0.00028143,0.0000075
 3,-0.00016441,-0.00008883,-0.00002358,0.00004236,0.00003367,0.00010303
 ,-0.00029725,0.00014017,-0.00111319,-0.00009465,-0.00007924,0.00017345
 ,-0.01914578,-0.01771237,0.00883801,0.00057575,0.00020792,-0.00135407,
 -0.03481665,-0.13442645,0.08540351,0.00017890,0.00000115,-0.00009554,0
 .00000383,0.00009229,-0.00000373,0.00006112,0.00008719,0.00002799,0.00
 012570,0.00024356,0.00007462,0.00003289,0.00005261,0.00001102,0.000012
 41,-0.00003945,-0.00002703,-0.00008588,-0.00000495,-0.00000042,0.00452
 467,-0.01726871,0.01252961,0.00014671,0.00596786,0.00015692,0.04907340
 ,0.16338598,0.00005757,0.00006771,-0.00004282,-0.00014665,-0.00014861,
 0.00001779,0.00017447,0.00009025,-0.00013861,0.00015869,0.00011022,0.0
 0004912,0.00038873,-0.00010941,-0.00044804,-0.00201019,-0.00036047,-0.
 00036095,-0.00000905,0.00006606,-0.00001937,0.00668849,0.00127591,0.00
 875304,-0.00291272,-0.00029123,-0.00056500,0.02685320,0.08331337,-0.10
 646154,0.00004011,-0.00018764,-0.00011308,-0.00000402,-0.00004368,0.00
 012103,-0.00004285,0.00000030,0.00004457,-0.00040705,-0.00001657,-0.00
 007349,-0.00009221,-0.00002869,-0.00005677,-0.00010489,-0.00000506,-0.
 00001728,0.00001321,-0.00003051,0.00013015,-0.00210992,0.00689435,0.00
 093607,0.00572584,0.01319764,-0.02082403,-0.03294579,-0.10487480,0.119
 51415,0.00009170,0.00004473,-0.00000486,-0.00028137,-0.00010776,-0.000
 11254,0.00037181,-0.00019721,-0.00017231,-0.00161729,0.00131131,-0.000
 00123,-0.04770309,-0.00122019,-0.00497223,-0.11164465,-0.05497105,0.08
 299102,-0.00964264,-0.01419256,0.00971731,-0.01290000,-0.00055790,0.02
 336517,0.00053787,0.00172495,0.00230720,0.00178092,0.00055751,-0.00167
 582,-0.02871478,0.02893147,0.00960340,0.00001159,-0.00004650,0.0001949
 0,0.00001671,0.00003787,0.00005510,-0.00006284,0.00054206,0.00023415,-
 0.00000369,-0.00001807,-0.00008141,-0.00029731,-0.00062101,-0.00034807
 ,-0.00144783,0.00029662,-0.00034438,-0.00025445,-0.00015149,0.00017514
 ,-0.00011561,-0.00013901,-0.00018352,-0.00027272,-0.00004202,0.0005163
 5,0.36601764,-0.00000264,0.00003476,-0.00007080,-0.00004270,0.00001169
 ,0.00007706,-0.00003310,-0.00005997,-0.00012698,0.00061129,0.00009471,
 -0.00005569,0.00450172,0.00733627,-0.00614250,-0.04774216,-0.09397232,
 0.06809229,-0.02855145,-0.01916759,0.02133702,0.00093630,0.00431360,-0
 .00305107,0.00077657,0.00015872,-0.00057489,0.00155861,0.00026329,-0.0
 0179278,0.02131116,-0.02280869,-0.00585091,0.00002606,-0.00001283,0.00
 007206,0.00000227,-0.00003292,0.00002044,-0.00019571,-0.00031585,-0.00
 001680,-0.00001627,0.00010866,0.00008700,-0.00017425,-0.00027888,-0.00
 044545,0.00162110,-0.00040171,0.00136681,-0.00027758,0.00010254,0.0005
 1413,0.00015837,0.00006098,-0.00005962,-0.00047070,-0.00032213,0.00051
 663,-0.06370714,0.22364875,-0.00000947,-0.00007169,0.00022742,0.000087
 38,0.00009037,-0.00024995,-0.00020236,0.00002409,0.00034110,-0.0001309
 1,-0.00022726,0.00062384,-0.00254684,-0.00277390,0.01059628,0.06770213
 ,0.07396343,-0.10776382,0.01559060,0.01267200,-0.00799803,0.02622396,0
 .00634690,-0.02807474,0.00200946,-0.00359110,-0.00556102,-0.00157829,-
 0.00237115,-0.00358967,0.03004059,-0.01491146,0.01373496,-0.00007706,0
 .00008771,-0.00026107,-0.00000317,0.00001725,-0.00007818,0.00030406,-0
 .00008343,-0.00022936,0.00012333,-0.00011858,-0.00007623,0.00014466,-0
 .00021816,-0.00015778,-0.00160037,0.00011280,-0.00162712,0.00030200,-0
 .00019776,-0.00007259,0.00062340,0.00039827,0.00026413,-0.00005211,-0.
 00000107,-0.00048057,-0.07448030,-0.13084445,0.20339482,-0.00016054,0.
 00012841,-0.00039675,0.00039788,-0.00021795,0.00065938,-0.00044568,0.0
 0052393,-0.00004050,0.00046564,-0.00033674,-0.00009207,-0.00547465,-0.
 00203439,0.00463635,-0.06328116,0.00868573,0.00228691,0.00002201,-0.00
 114521,0.00053732,-0.00005455,-0.00068700,-0.00257949,-0.00017301,0.00
 008574,0.00072476,0.00120618,0.00130586,0.00155895,-0.03150788,0.02455
 032,0.03983152,0.00009964,-0.00012540,-0.00007907,-0.00001794,-0.00013
 961,-0.00003240,-0.00013794,-0.00018328,-0.00003726,-0.00008417,-0.000
 10638,0.00016312,0.00033905,0.00021869,0.00058637,-0.00053821,0.000522
 98,-0.00119277,-0.00064486,0.00007270,0.00008319,-0.00005015,-0.000010
 62,-0.00007276,-0.00036893,-0.00017683,0.00013147,-0.15392517,0.109700
 81,-0.06247197,0.25443613,0.00013603,0.00006147,0.00013136,-0.00033531
 ,-0.00019639,-0.00028531,0.00038720,0.00001932,0.00003509,0.00022325,0
 .00003979,0.00025094,-0.00335089,-0.00021238,0.00017536,0.01291418,0.0
 1640062,-0.01426614,0.00088611,-0.00176516,-0.00069120,0.00035036,0.00
 056592,0.00194493,0.00052028,-0.00009657,-0.00073660,0.00018828,0.0002
 0002,-0.00180511,0.02708623,-0.02601015,-0.06505544,-0.00006753,-0.000
 00747,0.00001705,-0.00003978,0.00004339,0.00001340,-0.00030009,0.00012
 553,-0.00000699,-0.00012704,-0.00002075,-0.00013690,-0.00001636,-0.000
 19476,-0.00006357,-0.00040997,0.00000249,-0.00023922,0.00011809,-0.000
 54834,-0.00032619,-0.00000578,-0.00004768,0.00014445,-0.00003569,-0.00
 001946,0.00052145,0.10249330,-0.09876579,0.06171597,-0.14069109,0.1103
 6176,0.00005059,-0.00004902,0.00023503,-0.00013091,0.00008009,-0.00036
 347,0.00013991,-0.00012320,0.00015454,0.00011316,0.00017511,0.00020506
 ,0.00185225,0.00074090,-0.00047457,0.01124380,-0.02084835,0.00763869,-
 0.00137043,-0.00019847,0.00101791,0.00186360,-0.00012256,-0.00070190,0
 .00048964,-0.00005124,-0.00103224,0.00124557,-0.00152153,-0.00116881,0
 .01572438,-0.05423936,-0.21740844,-0.00006317,0.00004819,-0.00004038,-
 0.00000847,0.00003956,-0.00001936,-0.00015571,0.00007087,-0.00014087,0
 .00007208,-0.00000259,-0.00013614,0.00008588,-0.00004468,-0.00026217,0
 .00021415,-0.00010032,0.00035545,-0.00052452,0.00028730,-0.00062728,-0
 .00000735,0.00011059,0.00014017,0.00005077,0.00020203,0.00003269,-0.04
 677675,0.05696713,-0.07302704,0.01585390,0.01860221,0.28557077,-0.0010
 2908,-0.00466364,0.00234124,0.01652867,0.00655031,0.01899883,0.0003919
 9,-0.00012729,0.00113728,-0.00037742,0.00053467,0.00044552,-0.00305961
 ,-0.00081760,0.00107168,0.00026370,-0.00014373,0.00001828,0.00006066,0
 .00000155,0.00001273,0.00030683,0.00028174,0.00008663,-0.00025123,-0.0
 0016403,-0.00010129,-0.00010528,-0.00019851,-0.00003678,0.00002240,0.0
 0000440,-0.00003701,-0.00082126,0.00038218,-0.00204988,0.00071368,-0.0
 0004010,0.00078616,0.00006822,-0.00007232,-0.00010701,-0.00007764,-0.0
 0000713,0.00001399,0.00011598,0.00002592,-0.00014873,0.00109050,0.0005
 3437,-0.00079276,0.00002360,0.00001361,0.00000075,-0.00001012,0.000031
 27,0.00001478,-0.00000666,0.00005311,-0.00002787,-0.00000206,0.0000037
 9,0.00003452,-0.00011530,-0.00002353,0.00003935,0.03516304,-0.00632200
 ,-0.01125817,0.01095853,-0.00161324,-0.03670823,0.04718254,-0.00349224
 ,-0.00244416,0.00099280,0.00025529,-0.00046662,-0.00015846,0.00079661,
 0.00071398,-0.00016674,-0.00017646,0.00022308,-0.00009787,-0.00006399,
 -0.00010124,-0.00000272,0.00002284,-0.00024998,0.00012599,0.00003349,0
 .00025906,-0.00009255,-0.00008389,0.00016456,-0.00010305,0.00000478,-0
 .00005833,-0.00003702,-0.00015985,-0.00071709,-0.00121608,0.00049445,0
 .00069845,0.00042683,0.00010341,0.00007347,0.00009288,0.00011307,0.000
 04599,-0.00001002,-0.00013721,-0.00015846,-0.00000707,-0.00125654,-0.0
 0056103,0.00024067,0.00002528,-0.00003854,0.00002201,0.00002713,-0.000
 03496,0.00003475,0.00005126,-0.00004947,0.00004100,0.00005042,0.000014
 97,-0.00000874,-0.00002354,0.00010115,0.00001682,0.00076171,0.12051527
 ,0.00446522,0.01242799,-0.01032727,0.03181906,0.06272551,-0.04171229,0
 .00411384,0.00319587,0.00336436,0.00032732,0.00124163,0.00104899,-0.00
 057065,-0.00070832,0.00018908,0.00024524,-0.00033077,0.00016251,0.0000
 9628,0.00019970,-0.00001039,0.00041797,0.00030406,-0.00092067,-0.00057
 215,-0.00033571,0.00053687,0.00007153,-0.00025376,0.00043080,-0.000041
 05,0.00011847,0.00009867,0.00112578,0.00195094,-0.00333957,0.00043931,
 -0.00102571,0.00010573,-0.00005194,-0.00030740,-0.00032795,-0.00043761
 ,-0.00008280,0.00010875,0.00015367,0.00029731,0.00006188,0.00147001,0.
 00045462,-0.00047021,-0.00004944,0.00006492,-0.00007767,-0.00001714,0.
 00006047,-0.00009590,-0.00009969,0.00007616,-0.00012130,-0.00019078,-0
 .00004890,0.00011154,0.00016641,-0.00020690,-0.00003880,0.04934400,-0.
 17549438,0.34598088,0.01289000,-0.00775080,0.01912466,-0.08525935,-0.0
 4108794,-0.03553339,-0.01349500,-0.02623390,-0.00279542,-0.00008861,-0
 .00096396,-0.00054871,0.00054662,0.00060948,-0.00035626,-0.00014520,0.
 00023259,-0.00002967,-0.00007178,-0.00007859,0.00000485,-0.00022754,-0
 .00035223,0.00025470,0.00028348,0.00027978,-0.00017393,-0.00000424,0.0
 0024518,-0.00014827,0.00000394,-0.00004921,-0.00001686,-0.00087558,-0.
 00186136,0.00105968,-0.00312035,0.00006724,-0.00245688,0.00007434,0.00
 015060,0.00015251,0.00022107,-0.00005761,-0.00010989,-0.00017440,-0.00
 007091,0.00005872,-0.00151145,-0.00012291,0.00007732,0.00001165,-0.000
 04076,0.00003052,0.00002014,-0.00004695,0.00003910,0.00005521,-0.00007
 163,0.00006511,0.00006374,0.00000175,-0.00003648,0.00001171,0.00010000
 ,-0.00000443,-0.04888715,0.01058759,-0.09220346,0.13965682,-0.00008515
 ,-0.02292394,0.04742071,-0.04368376,-0.03865202,-0.05164700,-0.0166508
 4,-0.00936562,0.00090632,-0.00117784,-0.00103140,-0.00117648,0.0001135
 5,-0.00015619,0.00001996,0.00007385,-0.00004600,0.00011946,-0.00000304
 ,0.00004506,0.00000043,-0.00020116,-0.00004849,-0.00008811,0.00014878,
 -0.00002902,0.00003944,0.00013962,0.00003236,0.00006662,-0.00002128,0.
 00002344,0.00004693,-0.00102860,-0.00073882,-0.00036120,-0.00139550,-0
 .00061181,-0.00052482,-0.00034991,0.00011316,0.00010366,0.00008646,-0.
 00017380,0.00001557,-0.00008388,0.00006598,0.00003711,0.00051555,0.000
 10208,-0.00016014,-0.00003252,0.00001071,-0.00000839,-0.00001455,-0.00
 000073,-0.00002494,-0.00003045,-0.00000861,0.00000125,-0.00002144,-0.0
 0000206,-0.00001790,0.00008939,-0.00004238,-0.00003310,-0.00292863,-0.
 06998447,0.09570245,0.06652306,0.14343525,0.00787995,0.03546821,-0.032
 52562,-0.03202760,-0.04891917,-0.00589637,-0.01399437,-0.01119477,0.00
 282850,-0.00088230,-0.00208372,-0.00178906,0.00077415,0.00091620,0.000
 04166,-0.00021645,0.00048343,-0.00023281,-0.00011707,-0.00026517,0.000
 01098,-0.00005121,-0.00039507,0.00089212,0.00028383,0.00044816,-0.0005
 6108,-0.00027194,0.00027806,-0.00048346,0.00005612,-0.00014928,-0.0001
 5691,-0.00148160,-0.00230439,0.00298803,-0.00124737,0.00113608,-0.0011
 5738,-0.00008009,0.00051034,0.00038617,0.00054067,0.00013366,-0.000356
 19,-0.00022964,-0.00037887,-0.00014130,-0.00171031,-0.00060211,0.00016
 526,0.00009021,-0.00008836,0.00008236,0.00004657,-0.00006678,0.0001288
 8,0.00015266,-0.00008380,0.00012460,0.00019246,0.00002135,-0.00004299,
 -0.00023006,0.00027431,0.00008386,-0.07105382,0.11728103,-0.29476241,0
 .11356279,-0.09045422,0.33038275\\0.00000006,-0.00000004,0.00000013,0.
 00000006,0.00000010,0.00000013,0.00000004,-0.00000003,-0.00000016,-0.0
 0000004,0.00000009,0.,0.00000009,0.,-0.00000025,-0.00000093,-0.0000001
 0,0.00000025,0.00000003,0.00000007,-0.00000016,0.00001046,0.00000657,0
 .00000266,0.00000394,0.00000045,-0.00000223,0.00003489,0.00001487,-0.0
 0000355,-0.00000015,0.00000066,0.00000216,0.00000008,-0.00000002,-0.00
 000011,-0.00000001,-0.00000017,-0.00000005,-0.00000020,-0.00000027,-0.
 00000014,-0.00000011,-0.00000003,0.00000029,-0.00000004,0.00000008,0.0
 0000007,0.00000013,0.00000004,0.,-0.00004497,0.00004024,0.00000269,0.0
 0001059,-0.00001430,-0.00004077,-0.00001406,-0.00004723,0.00004187,0.0
 0000086,-0.00000115,0.00000039,-0.00000086,0.00000009,-0.00000319,-0.0
 0000013,0.00000013,-0.00000013,0.00000029,-0.00000007,0.00000011\\\@


 EVERYBODY NEEDS BEAUTY AS WELL AS BREAD, PLACES TO PLAY IN AND PRAY IN,
 WHERE NATURE MAY HEAL AND CHEER AND GIVE STRENGTH TO BODY AND SOUL ALIKE.

                                    -- JOHN MUIR
 Job cpu time:       0 days  0 hours  1 minutes 10.1 seconds.
 File lengths (MBytes):  RWF=     80 Int=      0 D2E=      0 Chk=      2 Scr=      1
 Normal termination of Gaussian 09 at Thu Feb  4 14:29:57 2021.
