 Entering Gaussian System, Link 0=g09
 Initial command:
 /apps/applications/gaussian/G09.D01/2/default/g09/l1.exe "/nobackup/chmrsh/Scratch/Gau-123408.inp" -scrdir="/nobackup/chmrsh/Scratch/"
 Entering Link 1 = /apps/applications/gaussian/G09.D01/2/default/g09/l1.exe PID=    123409.
  
 Copyright (c) 1988,1990,1992,1993,1995,1998,2003,2009,2013,
            Gaussian, Inc.  All Rights Reserved.
  
 This is part of the Gaussian(R) 09 program.  It is based on
 the Gaussian(R) 03 system (copyright 2003, Gaussian, Inc.),
 the Gaussian(R) 98 system (copyright 1998, Gaussian, Inc.),
 the Gaussian(R) 94 system (copyright 1995, Gaussian, Inc.),
 the Gaussian 92(TM) system (copyright 1992, Gaussian, Inc.),
 the Gaussian 90(TM) system (copyright 1990, Gaussian, Inc.),
 the Gaussian 88(TM) system (copyright 1988, Gaussian, Inc.),
 the Gaussian 86(TM) system (copyright 1986, Carnegie Mellon
 University), and the Gaussian 82(TM) system (copyright 1983,
 Carnegie Mellon University). Gaussian is a federally registered
 trademark of Gaussian, Inc.
  
 This software contains proprietary and confidential information,
 including trade secrets, belonging to Gaussian, Inc.
  
 This software is provided under written license and may be
 used, copied, transmitted, or stored only in accord with that
 written license.
  
 The following legend is applicable only to US Government
 contracts under FAR:
  
                    RESTRICTED RIGHTS LEGEND
  
 Use, reproduction and disclosure by the US Government is
 subject to restrictions as set forth in subparagraphs (a)
 and (c) of the Commercial Computer Software - Restricted
 Rights clause in FAR 52.227-19.
  
 Gaussian, Inc.
 340 Quinnipiac St., Bldg. 40, Wallingford CT 06492
  
  
 ---------------------------------------------------------------
 Warning -- This program may not be used in any manner that
 competes with the business of Gaussian, Inc. or will provide
 assistance to any competitor of Gaussian, Inc.  The licensee
 of this program is prohibited from giving any competitor of
 Gaussian, Inc. access to this program.  By using this program,
 the user acknowledges that Gaussian, Inc. is engaged in the
 business of creating and licensing software in the field of
 computational chemistry and represents and warrants to the
 licensee that it is not a competitor of Gaussian, Inc. and that
 it will not use this program in any manner prohibited above.
 ---------------------------------------------------------------
  

 Cite this work as:
 Gaussian 09, Revision D.01,
 M. J. Frisch, G. W. Trucks, H. B. Schlegel, G. E. Scuseria, 
 M. A. Robb, J. R. Cheeseman, G. Scalmani, V. Barone, B. Mennucci, 
 G. A. Petersson, H. Nakatsuji, M. Caricato, X. Li, H. P. Hratchian, 
 A. F. Izmaylov, J. Bloino, G. Zheng, J. L. Sonnenberg, M. Hada, 
 M. Ehara, K. Toyota, R. Fukuda, J. Hasegawa, M. Ishida, T. Nakajima, 
 Y. Honda, O. Kitao, H. Nakai, T. Vreven, J. A. Montgomery, Jr., 
 J. E. Peralta, F. Ogliaro, M. Bearpark, J. J. Heyd, E. Brothers, 
 K. N. Kudin, V. N. Staroverov, T. Keith, R. Kobayashi, J. Normand, 
 K. Raghavachari, A. Rendell, J. C. Burant, S. S. Iyengar, J. Tomasi, 
 M. Cossi, N. Rega, J. M. Millam, M. Klene, J. E. Knox, J. B. Cross, 
 V. Bakken, C. Adamo, J. Jaramillo, R. Gomperts, R. E. Stratmann, 
 O. Yazyev, A. J. Austin, R. Cammi, C. Pomelli, J. W. Ochterski, 
 R. L. Martin, K. Morokuma, V. G. Zakrzewski, G. A. Voth, 
 P. Salvador, J. J. Dannenberg, S. Dapprich, A. D. Daniels, 
 O. Farkas, J. B. Foresman, J. V. Ortiz, J. Cioslowski, 
 and D. J. Fox, Gaussian, Inc., Wallingford CT, 2013.
 
 ******************************************
 Gaussian 09:  ES64L-G09RevD.01 24-Apr-2013
                 4-Feb-2021 
 ******************************************
 %nprocshared=1
 Will use up to    1 processors via shared memory.
 ----------------------------------------------------------------------
 #P upm6 scf=qc opt(calcall, ts, noeigentest, cartesian,maxcycle=100) N
 oSymm, guess=mix
 ----------------------------------------------------------------------
 1/5=1,6=100,10=4,11=1,14=-1,18=10,26=1,38=1/1,3;
 2/12=2,15=1,17=6,18=5,29=2,40=1/2;
 3/5=2,16=1,25=1,41=3900000,71=2,116=2,140=1/1,2,3;
 4/13=-1,35=1/1;
 5/5=2,8=3,35=1,38=5/8;
 8/6=4,10=90,11=11/1;
 11/6=1,8=1,9=11,15=111,16=1,31=1/1,2,10;
 10/6=1,31=1/2;
 6/7=2,8=2,9=2,10=2,18=1,28=1/1;
 7/7=1,10=1,25=1,30=1/1,2,3,16;
 1/5=1,6=100,10=4,11=1,14=-1,18=10,26=1/3(3);
 2/15=1,29=1/2;
 7/7=1,8=1,9=1,25=1,30=1,44=-1/16;
 99/12=1/99;
 2/15=1,29=1/2;
 3/5=2,16=1,25=1,41=3900000,71=2,116=2,135=20,140=1/1,2,3;
 4/5=5,16=3,35=1/1;
 5/5=2,8=3,35=1,38=5/8;
 8/6=4,10=90,11=11/1;
 11/6=1,8=1,9=11,15=111,16=1,31=1/1,2,10;
 10/6=1,31=1/2;
 7/7=1,10=1,25=1,30=1/1,2,3,16;
 1/5=1,6=100,10=4,11=1,14=-1,18=10,26=1/3(-8);
 2/15=1,29=1/2;
 6/7=2,8=2,9=2,10=2,18=1,19=2,28=1/1;
 7/7=1,8=1,9=1,25=1,30=1,44=-1/16;
 99/12=1/99;
 Leave Link    1 at Thu Feb  4 15:33:12 2021, MaxMem=           0 cpu:         0.1
 (Enter /apps/applications/gaussian/G09.D01/2/default/g09/l101.exe)
 ------------------------------
 Gaussian input prepared by ASE
 ------------------------------
 Symbolic Z-matrix:
 Charge =  0 Multiplicity = 2
 O                    -1.27483   1.45514   3.51979 
 C                    -1.55941   1.84047   2.42975 
 C                    -2.55621   1.40656   1.41714 
 C                    -3.95945   1.91384   1.77743 
 C                    -4.11677   3.41941   1.5186 
 C                    -5.34802   3.76761   0.67957 
 H                    -5.46137   4.86955   0.55016 
 C                    -5.31373   3.11054  -0.71695 
 O                    -4.31679   3.19312  -1.39597 
 C                    -6.56171   2.4207   -1.15348 
 H                    -7.86366   4.39061   1.98304 
 H                    -2.26894   1.77865   0.4 
 H                    -2.55311   0.29686   1.34548 
 H                    -4.70488   1.33685   1.19126 
 H                    -4.19203   1.68254   2.83712 
 H                    -4.16292   3.96634   2.48134 
 H                    -3.2194    3.8199    0.98523 
 H                    -7.42474   3.10812  -1.13951 
 H                    -6.46954   2.00442  -2.16548 
 H                    -6.83402   1.60638  -0.46386 
 O                    -6.46586   3.26524   1.46053 
 O                    -7.59727   4.04253   1.07952 
 O                    -0.91527   3.52671   0.96024 
 O                    -0.6886    3.05455   2.03577 
 
 NAtoms=     24 NQM=       24 NQMF=       0 NMMI=      0 NMMIF=      0
                NMic=       0 NMicF=      0.
                    Isotopes and Nuclear Properties:
 (Nuclear quadrupole moments (NQMom) in fm**2, nuclear magnetic moments (NMagM)
  in nuclear magnetons)

  Atom         1           2           3           4           5           6           7           8           9          10
 IAtWgt=          16          12          12          12          12          12           1          12          16          12
 AtmWgt=  15.9949146  12.0000000  12.0000000  12.0000000  12.0000000  12.0000000   1.0078250  12.0000000  15.9949146  12.0000000
 NucSpn=           0           0           0           0           0           0           1           0           0           0
 AtZEff=   0.0000000   0.0000000   0.0000000   0.0000000   0.0000000   0.0000000   0.0000000   0.0000000   0.0000000   0.0000000
 NQMom=    0.0000000   0.0000000   0.0000000   0.0000000   0.0000000   0.0000000   0.0000000   0.0000000   0.0000000   0.0000000
 NMagM=    0.0000000   0.0000000   0.0000000   0.0000000   0.0000000   0.0000000   2.7928460   0.0000000   0.0000000   0.0000000
 AtZNuc=   8.0000000   6.0000000   6.0000000   6.0000000   6.0000000   6.0000000   1.0000000   6.0000000   8.0000000   6.0000000

  Atom        11          12          13          14          15          16          17          18          19          20
 IAtWgt=           1           1           1           1           1           1           1           1           1           1
 AtmWgt=   1.0078250   1.0078250   1.0078250   1.0078250   1.0078250   1.0078250   1.0078250   1.0078250   1.0078250   1.0078250
 NucSpn=           1           1           1           1           1           1           1           1           1           1
 AtZEff=   0.0000000   0.0000000   0.0000000   0.0000000   0.0000000   0.0000000   0.0000000   0.0000000   0.0000000   0.0000000
 NQMom=    0.0000000   0.0000000   0.0000000   0.0000000   0.0000000   0.0000000   0.0000000   0.0000000   0.0000000   0.0000000
 NMagM=    2.7928460   2.7928460   2.7928460   2.7928460   2.7928460   2.7928460   2.7928460   2.7928460   2.7928460   2.7928460
 AtZNuc=   1.0000000   1.0000000   1.0000000   1.0000000   1.0000000   1.0000000   1.0000000   1.0000000   1.0000000   1.0000000

  Atom        21          22          23          24
 IAtWgt=          16          16          16          16
 AtmWgt=  15.9949146  15.9949146  15.9949146  15.9949146
 NucSpn=           0           0           0           0
 AtZEff=   0.0000000   0.0000000   0.0000000   0.0000000
 NQMom=    0.0000000   0.0000000   0.0000000   0.0000000
 NMagM=    0.0000000   0.0000000   0.0000000   0.0000000
 AtZNuc=   8.0000000   8.0000000   8.0000000   8.0000000
 Leave Link  101 at Thu Feb  4 15:33:12 2021, MaxMem=    33554432 cpu:         0.2
 (Enter /apps/applications/gaussian/G09.D01/2/default/g09/l103.exe)

 GradGradGradGradGradGradGradGradGradGradGradGradGradGradGradGradGradGrad
 Berny optimization.
 Initialization pass.
 No Z-matrix variables, so optimization will use Cartesian coordinates.
 Trust Radius=3.00D-01 FncErr=1.00D-07 GrdErr=1.00D-07
 Number of steps in this run=    100 maximum allowed number of steps=    144.
 Search for a saddle point of order  1.
 GradGradGradGradGradGradGradGradGradGradGradGradGradGradGradGradGradGrad

 Leave Link  103 at Thu Feb  4 15:33:12 2021, MaxMem=    33554432 cpu:         0.0
 (Enter /apps/applications/gaussian/G09.D01/2/default/g09/l202.exe)
 ---------------------------------------------------------------------------------------------------
                            Z-MATRIX (ANGSTROMS AND DEGREES)
   CD    Cent   Atom    N1       Length/X        N2       Alpha/Y        N3        Beta/Z          J
 ---------------------------------------------------------------------------------------------------
      1      1  O        0  -1.274827          1.455143          3.519786
      2      2  C        0  -1.559405          1.840473          2.429750
      3      3  C        0  -2.556211          1.406563          1.417137
      4      4  C        0  -3.959451          1.913841          1.777431
      5      5  C        0  -4.116768          3.419414          1.518599
      6      6  C        0  -5.348015          3.767610          0.679570
      7      7  H        0  -5.461373          4.869547          0.550162
      8      8  C        0  -5.313728          3.110539         -0.716949
      9      9  O        0  -4.316786          3.193123         -1.395971
     10     10  C        0  -6.561714          2.420698         -1.153476
     11     11  H        0  -7.863656          4.390611          1.983042
     12     12  H        0  -2.268938          1.778648          0.400003
     13     13  H        0  -2.553105          0.296857          1.345480
     14     14  H        0  -4.704878          1.336849          1.191264
     15     15  H        0  -4.192025          1.682543          2.837115
     16     16  H        0  -4.162924          3.966335          2.481336
     17     17  H        0  -3.219396          3.819902          0.985232
     18     18  H        0  -7.424737          3.108115         -1.139507
     19     19  H        0  -6.469542          2.004420         -2.165481
     20     20  H        0  -6.834018          1.606375         -0.463858
     21     21  O        0  -6.465863          3.265244          1.460529
     22     22  O        0  -7.597268          4.042527          1.079523
     23     23  O        0  -0.915267          3.526708          0.960243
     24     24  O        0  -0.688599          3.054554          2.035769
 ---------------------------------------------------------------------------------------------------
                         Z-Matrix orientation:                         
 ---------------------------------------------------------------------
 Center     Atomic      Atomic             Coordinates (Angstroms)
 Number     Number       Type             X           Y           Z
 ---------------------------------------------------------------------
      1          8           0       -1.274827    1.455143    3.519786
      2          6           0       -1.559405    1.840473    2.429750
      3          6           0       -2.556211    1.406563    1.417137
      4          6           0       -3.959451    1.913841    1.777431
      5          6           0       -4.116768    3.419414    1.518599
      6          6           0       -5.348015    3.767610    0.679570
      7          1           0       -5.461373    4.869547    0.550162
      8          6           0       -5.313728    3.110539   -0.716949
      9          8           0       -4.316786    3.193123   -1.395971
     10          6           0       -6.561714    2.420698   -1.153476
     11          1           0       -7.863656    4.390611    1.983042
     12          1           0       -2.268938    1.778648    0.400003
     13          1           0       -2.553105    0.296857    1.345480
     14          1           0       -4.704878    1.336849    1.191264
     15          1           0       -4.192025    1.682543    2.837115
     16          1           0       -4.162924    3.966335    2.481336
     17          1           0       -3.219396    3.819902    0.985232
     18          1           0       -7.424737    3.108115   -1.139507
     19          1           0       -6.469542    2.004420   -2.165481
     20          1           0       -6.834018    1.606375   -0.463858
     21          8           0       -6.465863    3.265244    1.460529
     22          8           0       -7.597268    4.042527    1.079523
     23          8           0       -0.915267    3.526708    0.960243
     24          8           0       -0.688599    3.054554    2.035769
 ---------------------------------------------------------------------
                    Distance matrix (angstroms):
                    1          2          3          4          5
     1  O    0.000000
     2  C    1.190648   0.000000
     3  C    2.462811   1.485694   0.000000
     4  C    3.233173   2.488197   1.535000   0.000000
     5  C    3.992460   3.140598   2.548961   1.535738   0.000000
     6  C    5.477699   4.596798   3.729976   2.563175   1.530091
     7  H    6.164738   5.285215   4.602594   3.535273   2.201981
     8  C    6.083008   5.060605   3.880948   3.080273   2.554563
     9  O    6.036452   4.906012   3.768952   3.440164   2.930176
    10  C    7.121997   6.180555   4.866269   3.952074   3.757017
    11  H    7.375040   6.815155   6.115044   4.628119   3.898474
    12  H    3.290282   2.151077   1.120506   2.184816   2.712535
    13  H    2.775469   2.132096   1.112021   2.186099   3.496480
    14  H    4.147440   3.417819   2.161631   1.110033   2.188629
    15  H    3.004629   2.668628   2.183664   1.109288   2.181942
    16  H    3.965548   3.361586   3.204135   2.179361   1.108204
    17  H    3.974594   2.959787   2.539796   2.192790   1.118100
    18  H    7.890673   6.982022   5.756236   4.684338   4.255008
    19  H    7.720688   6.726996   5.339171   4.674967   4.594584
    20  H    6.840826   6.020740   4.677360   3.658011   3.821085
    21  O    5.870593   5.200259   4.329198   2.865103   2.354865
    22  O    7.254151   6.567187   5.698644   4.272247   3.562996
    23  O    3.312390   2.327607   2.719644   3.540649   3.251597
    24  O    2.259222   1.545159   2.566428   3.473678   3.486105
                    6          7          8          9         10
     6  C    0.000000
     7  H    1.115285   0.000000
     8  C    1.543756   2.172896   0.000000
     9  O    2.387748   2.812101   1.209043   0.000000
    10  C    2.578235   3.179622   1.491276   2.386450   0.000000
    11  H    2.900969   2.837867   3.928189   5.043014   3.925985
    12  H    3.676254   4.446105   3.506032   3.069193   4.610147
    13  H    4.505672   5.477230   4.448759   4.360560   5.179230
    14  H    2.565941   3.669230   2.675435   3.207827   3.181254
    15  H    3.215403   4.122911   3.991085   4.496269   4.699480
    16  H    2.165708   2.496236   3.505105   3.956645   4.621152
    17  H    2.151089   2.513464   2.790491   2.695783   4.207485
    18  H    2.838441   3.132479   2.152886   3.119673   1.103425
    19  H    3.530011   4.074319   2.158159   2.576726   1.098152
    20  H    2.861218   3.682483   2.153566   3.118182   1.101292
    21  O    1.453221   2.100371   2.468352   3.575378   2.748721
    22  O    2.301017   2.350794   3.051306   4.196560   2.947709
    23  O    4.448153   4.757989   4.725741   4.151308   6.129717
    24  O    4.904883   5.317951   5.382602   4.995977   6.713161
                   11         12         13         14         15
    11  H    0.000000
    12  H    6.374106   0.000000
    13  H    6.735522   1.780557   0.000000
    14  H    4.464331   2.599054   2.394889   0.000000
    15  H    4.641546   3.105964   2.613649   1.758223   0.000000
    16  H    3.758154   3.564422   4.164944   2.978623   2.311521
    17  H    4.784400   2.326495   3.603549   2.900803   2.990616
    18  H    3.404080   5.542548   6.149076   3.995937   5.319418
    19  H    4.984747   4.927246   5.530018   3.850640   5.506056
    20  H    3.847005   4.649289   4.828536   2.710223   4.228753
    21  O    1.869036   4.576993   4.912660   2.625315   3.093585
    22  O    1.004227   5.829065   6.288430   3.962209   4.500482
    23  O    7.076196   2.280791   3.641821   4.382922   4.202468
    24  O    7.298580   2.607899   3.399673   4.449067   3.846890
                   16         17         18         19         20
    16  H    0.000000
    17  H    1.774828   0.000000
    18  H    4.948381   4.765087   0.000000
    19  H    5.546396   4.877132   1.784142   0.000000
    20  H    4.623670   4.479404   1.749478   1.785162   0.000000
    21  O    2.614786   3.327627   2.775665   3.838963   2.567226
    22  O    3.710203   4.384543   2.413915   3.994458   2.983188
    23  O    3.613070   2.322843   6.852545   6.552670   6.383366
    24  O    3.619504   2.845052   7.447201   7.223059   6.790547
                   21         22         23         24
    21  O    0.000000
    22  O    1.424574   0.000000
    23  O    5.579226   6.702942   0.000000
    24  O    5.809653   7.044161   1.196271   0.000000
 Symmetry turned off by external request.
 Stoichiometry    C7H11O6(2)
 Framework group  C1[X(C7H11O6)]
 Deg. of freedom    66
 Full point group                 C1      NOp   1
 Rotational constants (GHZ):      1.4100444      0.3897517      0.3551469
 Leave Link  202 at Thu Feb  4 15:33:12 2021, MaxMem=    33554432 cpu:         0.0
 (Enter /apps/applications/gaussian/G09.D01/2/default/g09/l301.exe)
 Standard basis: VSTO-6G (5D, 7F)
 Ernie: Thresh=  0.10000D-02 Tol=  0.10000D-05 Strict=F.
  NNHCO=     0 NNPyr=     0 NCTC=     0               EPep=         0.000000000
    EC=       409.240745152  ECS=         5.016756596   EG=         0.353648677
   EHC=         0.002188179  EAt=       -97.491951148  AtH=         3.389121767
 EPDDG=         0.000000000  ECC=       414.613338604 EAtT=       100.881072916
    63 basis functions,   378 primitive gaussians,    63 cartesian basis functions
    38 alpha electrons       37 beta electrons
       nuclear repulsion energy       515.4944115199 Hartrees.
 IExCor=    0 DFT=F Ex=HF Corr=None ExCW=0 ScaHFX=  1.000000
 ScaDFX=  1.000000  1.000000  1.000000  1.000000 ScalE2=  1.000000  1.000000
 IRadAn=      0 IRanWt=     -1 IRanGd=            0 ICorTp=0 IEmpDi=  4
 Integral buffers will be    131072 words long.
 Regular integral format.
 Two-electron integral symmetry is turned off.
 Leave Link  301 at Thu Feb  4 15:33:12 2021, MaxMem=    33554432 cpu:         0.1
 (Enter /apps/applications/gaussian/G09.D01/2/default/g09/l302.exe)
 Do NDO integrals.
 NPDir=0 NMtPBC=     1 NCelOv=     1 NCel=       1 NClECP=     1 NCelD=      1
         NCelK=      1 NCelE2=     1 NClLst=     1 CellRange=     0.0.
 One-electron integrals computed using PRISM.
 NBasis=    63 RedAO= F EigKep=  0.00D+00  NBF=    63
 NBsUse=    63 1.00D-04 EigRej=  0.00D+00 NBFU=    63
 Leave Link  302 at Thu Feb  4 15:33:13 2021, MaxMem=    33554432 cpu:         0.1
 (Enter /apps/applications/gaussian/G09.D01/2/default/g09/l303.exe)
 DipDrv:  MaxL=1.
 Leave Link  303 at Thu Feb  4 15:33:13 2021, MaxMem=    33554432 cpu:         0.0
 (Enter /apps/applications/gaussian/G09.D01/2/default/g09/l401.exe)
 Simple Huckel Guess.
 JPrj=0 DoOrth=F DoCkMO=T.
 Mixing orbitals, IMix= 1 IMixAn=  0 NRI=1 NE=   38 Coef=  7.07106781D-01  7.07106781D-01
 Mixing orbitals, IMix= 1 IMixAn=  0 NRI=1 NE=   37 Coef= -7.07106781D-01  7.07106781D-01
 Initial guess <Sx>= 0.0000 <Sy>= 0.0000 <Sz>= 0.5000 <S**2>= 1.0000 S= 0.6180
 Leave Link  401 at Thu Feb  4 15:33:13 2021, MaxMem=    33554432 cpu:         0.1
 (Enter /apps/applications/gaussian/G09.D01/2/default/g09/l508.exe)
 Direct SCF.
 Tight linear equation convergence will be used.
 UPM6 wavefunction.
 Quadratic Convergence SCF Method.
 Line search only if initial step raises energy.
 Two-electron integral symmetry not used.
 ReadGW:  IGet=1 IStart=       59293 Next=       59293 LGW=           0.
 Keep J ints in memory in canonical form, NReq=922402.
 FoFCou: FMM=F IPFlag=           0 FMFlag=           0 FMFlg1=           0
         NFxFlg=           0 DoJE=F BraDBF=F KetDBF=F FulRan=T
         wScrn=  0.000000 ICntrl=     600 IOpCl=  2 I1Cent=           0 NGrid=           0
         NMat0=    1 NMatS0=    141 NMatT0=    0 NMatD0=    1 NMtDS0=    0 NMtDT0=    0
 Symmetry not used in FoFCou.
 Iteration   1 EE= 0.881108757614356                                    Grad=6.675D-01 Max rot=    8.8708 deg.
 Gradient too large for Newton-Raphson -- use scaled steepest descent instead.
 Alpha Gap=     0.103 HL deriv= 1.35D+00
  Beta Gap=     0.274 HL deriv= 1.64D-03
     ILin= 1 X=0.000D+00 Y= 8.811087576144D-01 DE= 0.00D+00 F= -1.60D+00
     ILin= 2 X=3.000D-01 Y= 4.561840956103D-01 DE=-4.25D-01 F= -1.19D+00
     ILin= 3 X=4.000D-01 Y= 3.466921476926D-01 DE=-5.34D-01 F= -1.00D+00
     ILin= 4 X=6.000D-01 Y= 1.855009594524D-01 DE=-6.96D-01 F= -6.09D-01
     ILin= 5 X=8.000D-01 Y= 1.019077871002D-01 DE=-7.79D-01 F= -2.33D-01
     Note:  rotation exceeds Pi/2.
     ILin= 6 X=1.200D+00 Y= 1.326323867212D-01 DE=-7.48D-01 F=  3.42D-01
     An  expanding polynomial of degree  6 produced  0.9399
 Iteration   2 EE= 0.858264199106316E-01 Delta-E=       -0.795282337704 Grad=2.985D-01 Max rot=    4.8372 deg.
 Gradient too large for Newton-Raphson -- use scaled steepest descent instead.
 Alpha Gap=     0.216 HL deriv= 3.91D-01
  Beta Gap=     0.287 HL deriv= 4.93D-02
     ILin= 1 X=0.000D+00 Y= 8.582641991063D-02 DE= 0.00D+00 F= -2.74D-01
     ILin= 2 X=5.000D-01 Y=-3.190384924415D-02 DE=-1.18D-01 F= -1.94D-01
     ILin= 3 X=8.000D-01 Y=-8.149278657163D-02 DE=-1.67D-01 F= -1.36D-01
     ILin= 4 X=1.100D+00 Y=-1.126482750991D-01 DE=-1.98D-01 F= -7.10D-02
     ILin= 5 X=1.500D+00 Y=-1.225055247324D-01 DE=-2.08D-01 F=  2.29D-02
     Accept linear search using points  4 and  5.
     An  expanding polynomial of degree  5 produced  1.3131
 Iteration   3 EE=-0.122587205797117     Delta-E=       -0.208413625708 Grad=9.055D-02 Max rot=    1.0502 deg.
 Gradient too large for Newton-Raphson -- use scaled steepest descent instead.
 Alpha Gap=     0.358 HL deriv= 2.63D-02
  Beta Gap=     0.299 HL deriv= 6.12D-02
     ILin= 1 X=0.000D+00 Y=-1.225872057971D-01 DE= 0.00D+00 F= -2.49D-02
     ILin= 2 X=1.100D+00 Y=-1.410564973779D-01 DE=-1.85D-02 F= -8.60D-03
     Reject lnstep minimum 1.397D+00 FVal=-1.422668309527D-01 Lims=  0.00D+00  1.10D+00
     ILin= 3 X=1.900D+00 Y=-1.430444652511D-01 DE=-2.05D-02 F=  3.69D-03
     Accept linear search using points  2 and  3.
     An  expanding polynomial of degree  3 produced  1.6188
 Iteration   4 EE=-0.143467348735953     Delta-E=       -0.020880142939 Grad=4.524D-02 Max rot=    1.0001 deg.
 Gradient too large for Newton-Raphson -- use scaled steepest descent instead.
 Alpha Gap=     0.384 HL deriv= 8.34D-03
  Beta Gap=     0.307 HL deriv= 5.68D-02
     ILin= 1 X=0.000D+00 Y=-1.434673487360D-01 DE= 0.00D+00 F= -7.06D-03
     ILin= 2 X=1.500D+00 Y=-1.491729293447D-01 DE=-5.71D-03 F= -5.11D-04
     ILin= 3 X=2.500D+00 Y=-1.474576225298D-01 DE=-3.99D-03 F=  3.95D-03
     An  expanding polynomial of degree  3 produced  1.6115
     Minimum is close to point  2 DX=  1.12D-01 DF= -2.74D-05 DXR=  6.92D-02 DFR=  4.81D-03 which will be used.
 Iteration   5 EE=-0.149172929344672     Delta-E=       -0.005705580609 Grad=3.402D-02 Max rot=    0.9225 deg.
 Gradient too large for Newton-Raphson -- use scaled steepest descent instead.
 Alpha Gap=     0.396 HL deriv= 2.27D-03
  Beta Gap=     0.311 HL deriv= 5.17D-02
     ILin= 1 X=0.000D+00 Y=-1.491729293447D-01 DE= 0.00D+00 F= -4.28D-03
     ILin= 2 X=1.600D+00 Y=-1.530859386451D-01 DE=-3.91D-03 F= -5.93D-04
     ILin= 3 X=2.900D+00 Y=-1.518625781392D-01 DE=-2.69D-03 F=  2.49D-03
     An  expanding polynomial of degree  3 produced  1.8471
 Iteration   6 EE=-0.153160959396246     Delta-E=       -0.003988030052 Grad=3.565D-02 Max rot=    0.8135 deg.
 Gradient too large for Newton-Raphson -- use scaled steepest descent instead.
 Alpha Gap=     0.401 HL deriv= 1.24D-03
  Beta Gap=     0.318 HL deriv= 4.47D-02
     ILin= 1 X=0.000D+00 Y=-1.531609593962D-01 DE= 0.00D+00 F= -4.20D-03
     ILin= 2 X=1.700D+00 Y=-1.559013192681D-01 DE=-2.74D-03 F=  9.84D-04
     Accept linear search using points  1 and  2.
     An  expanding polynomial of degree  2 produced  1.5701
     Minimum is close to point  2 DX= -1.30D-01 DF= -3.67D-05 DXR=  8.27D-02 DFR=  1.34D-02 which will be used.
 Iteration   7 EE=-0.155901319268082     Delta-E=       -0.002740359872 Grad=3.505D-02 Max rot=    0.6868 deg.
 Gradient too large for Newton-Raphson -- use scaled steepest descent instead.
 Alpha Gap=     0.410 HL deriv= 7.59D-04
  Beta Gap=     0.320 HL deriv= 3.74D-02
     ILin= 1 X=0.000D+00 Y=-1.559013192681D-01 DE= 0.00D+00 F= -3.79D-03
     ILin= 2 X=1.700D+00 Y=-1.577857712772D-01 DE=-1.88D-03 F=  1.59D-03
     Accept linear search using points  1 and  2.
     An  expanding polynomial of degree  2 produced  1.4224
 Iteration   8 EE=-0.158103572286677     Delta-E=       -0.002202253019 Grad=2.584D-02 Max rot=    0.5886 deg.
 Gradient too large for Newton-Raphson -- use scaled steepest descent instead.
 Alpha Gap=     0.410 HL deriv= 1.90D-04
  Beta Gap=     0.324 HL deriv= 3.17D-02
     ILin= 1 X=0.000D+00 Y=-1.581035722867D-01 DE= 0.00D+00 F= -2.19D-03
     ILin= 2 X=1.500D+00 Y=-1.595670969540D-01 DE=-1.46D-03 F=  2.40D-04
     Accept linear search using points  1 and  2.
     An  expanding polynomial of degree  2 produced  1.4386
     Minimum is close to point  2 DX= -6.14D-02 DF= -4.85D-06 DXR=  4.27D-02 DFR=  3.32D-03 which will be used.
 Iteration   9 EE=-0.159567096953992     Delta-E=       -0.001463524667 Grad=2.123D-02 Max rot=    0.4928 deg.
 Gradient too large for Newton-Raphson -- use scaled steepest descent instead.
 Alpha Gap=     0.415 HL deriv= 1.45D-04
  Beta Gap=     0.325 HL deriv= 2.65D-02
     ILin= 1 X=0.000D+00 Y=-1.595670969540D-01 DE= 0.00D+00 F= -1.49D-03
     ILin= 2 X=1.400D+00 Y=-1.605932280869D-01 DE=-1.03D-03 F=  2.51D-05
     Accept linear search using points  1 and  2.
     An  expanding polynomial of degree  2 produced  1.3904
     Minimum is close to point  2 DX= -9.62D-03 DF= -8.60D-08 DXR=  6.92D-03 DFR=  8.38D-05 which will be used.
 Iteration  10 EE=-0.160593228086896     Delta-E=       -0.001026131133 Grad=1.582D-02 Max rot=    0.4108 deg.
 Gradient too large for Newton-Raphson -- use scaled steepest descent instead.
 Alpha Gap=     0.415 HL deriv= 1.48D-05
  Beta Gap=     0.326 HL deriv= 2.20D-02
     ILin= 1 X=0.000D+00 Y=-1.605932280869D-01 DE= 0.00D+00 F= -8.82D-04
     ILin= 2 X=1.400D+00 Y=-1.612854457293D-01 DE=-6.92D-04 F= -1.06D-04
     Reject lnstep minimum 1.460D+00 FVal=-1.612877332222D-01 Lims=  0.00D+00  1.40D+00
     ILin= 3 X=2.800D+00 Y=-1.608880020336D-01 DE=-2.95D-04 F=  6.74D-04
     An  expanding polynomial of degree  3 produced  1.5894
 Iteration  11 EE=-0.161295517707004     Delta-E=       -0.000702289620 Grad=1.432D-02 Max rot=    0.3345 deg.
 Gradient too large for Newton-Raphson -- use scaled steepest descent instead.
 Alpha Gap=     0.417 HL deriv= 3.05D-05
  Beta Gap=     0.327 HL deriv= 1.79D-02
     ILin= 1 X=0.000D+00 Y=-1.612955177070D-01 DE= 0.00D+00 F= -6.87D-04
     ILin= 2 X=1.500D+00 Y=-1.617760405858D-01 DE=-4.81D-04 F=  4.64D-05
     Accept linear search using points  1 and  2.
     An  expanding polynomial of degree  2 produced  1.4636
     Minimum is close to point  2 DX= -3.64D-02 DF= -5.59D-07 DXR=  2.49D-02 DFR=  1.16D-03 which will be used.
 Iteration  12 EE=-0.161776040585778     Delta-E=       -0.000480522879 Grad=1.206D-02 Max rot=    0.2702 deg.
 Gradient too large for Newton-Raphson -- use scaled steepest descent instead.
 Alpha Gap=     0.417 HL deriv= 2.49D-05
  Beta Gap=     0.328 HL deriv= 1.44D-02
     ILin= 1 X=0.000D+00 Y=-1.617760405858D-01 DE= 0.00D+00 F= -4.83D-04
     ILin= 2 X=1.500D+00 Y=-1.621052002474D-01 DE=-3.29D-04 F=  4.46D-05
     Accept linear search using points  1 and  2.
     An  expanding polynomial of degree  2 produced  1.4489
     Minimum is close to point  2 DX= -5.11D-02 DF= -7.53D-07 DXR=  3.53D-02 DFR=  2.29D-03 which will be used.
 Iteration  13 EE=-0.162105200247424     Delta-E=       -0.000329159662 Grad=1.025D-02 Max rot=    0.2216 deg.
 Gradient too large for Newton-Raphson -- use scaled steepest descent instead.
 Alpha Gap=     0.419 HL deriv= 1.62D-05
  Beta Gap=     0.327 HL deriv= 1.18D-02
     ILin= 1 X=0.000D+00 Y=-1.621052002474D-01 DE= 0.00D+00 F= -3.45D-04
     ILin= 2 X=1.500D+00 Y=-1.623305768759D-01 DE=-2.25D-04 F=  4.46D-05
     Accept linear search using points  1 and  2.
     An  expanding polynomial of degree  2 produced  1.4261
     Minimum is close to point  2 DX= -7.39D-02 DF= -1.08D-06 DXR=  5.18D-02 DFR=  4.81D-03 which will be used.
 Iteration  14 EE=-0.162330576875888     Delta-E=       -0.000225376628 Grad=8.789D-03 Max rot=    0.1776 deg.
 QCNR:  CnvC1=4.37D-09 CnvC2=4.37D-08
 LinEq1:  Iter=  0 NonCon=     1 RMS=3.44D-04 Max=1.11D-02 NDo=     1
 AX will form     1 AO Fock derivatives at one time.
 LinEq1:  Iter=  1 NonCon=     1 RMS=1.08D-04 Max=2.16D-03 NDo=     1
 LinEq1:  Iter=  2 NonCon=     1 RMS=7.19D-06 Max=8.49D-05 NDo=     1
 LinEq1:  Iter=  3 NonCon=     1 RMS=2.07D-06 Max=3.84D-05 NDo=     1
 LinEq1:  Iter=  4 NonCon=     1 RMS=5.02D-07 Max=1.28D-05 NDo=     1
 LinEq1:  Iter=  5 NonCon=     1 RMS=1.16D-07 Max=1.83D-06 NDo=     1
 LinEq1:  Iter=  6 NonCon=     1 RMS=2.44D-08 Max=3.49D-07 NDo=     1
 LinEq1:  Iter=  7 NonCon=     1 RMS=5.08D-09 Max=6.42D-08 NDo=     1
 LinEq1:  Iter=  8 NonCon=     0 RMS=9.90D-10 Max=1.08D-08 NDo=     1
 Linear equations converged to 4.373D-09 4.373D-08 after     8 iterations.
 Angle between quadratic step and gradient=  55.76 degrees.
     ILin= 1 X=0.000D+00 Y=-1.623305768759D-01 DE= 0.00D+00 F= -1.04D-03
     ILin= 2 X=1.000D+00 Y=-1.628357057422D-01 DE=-5.05D-04 F=  4.06D-05
     Accept linear search using points  1 and  2.
     An  expanding polynomial of degree  2 produced  0.9637
     Minimum is close to point  2 DX= -3.63D-02 DF= -7.35D-07 DXR=  3.76D-02 DFR=  1.46D-03 which will be used.
 Iteration  15 EE=-0.162835705742168     Delta-E=       -0.000505128866 Grad=5.347D-04 Max rot=    0.0125 deg.
 QCNR:  CnvC1=4.37D-09 CnvC2=4.37D-08
 LinEq1:  Iter=  0 NonCon=     1 RMS=2.57D-05 Max=6.60D-04 NDo=     1
 LinEq1:  Iter=  1 NonCon=     1 RMS=4.52D-06 Max=7.77D-05 NDo=     1
 LinEq1:  Iter=  2 NonCon=     1 RMS=1.16D-06 Max=1.94D-05 NDo=     1
 LinEq1:  Iter=  3 NonCon=     1 RMS=3.01D-07 Max=5.32D-06 NDo=     1
 LinEq1:  Iter=  4 NonCon=     1 RMS=5.80D-08 Max=7.58D-07 NDo=     1
 LinEq1:  Iter=  5 NonCon=     1 RMS=1.11D-08 Max=1.73D-07 NDo=     1
 LinEq1:  Iter=  6 NonCon=     0 RMS=2.63D-09 Max=3.75D-08 NDo=     1
 Linear equations converged to 4.373D-09 4.373D-08 after     6 iterations.
 Angle between quadratic step and gradient=  41.26 degrees.
     ILin= 1 X=0.000D+00 Y=-1.628357057422D-01 DE= 0.00D+00 F= -4.02D-06
     ILin= 2 X=1.000D+00 Y=-1.628377215425D-01 DE=-2.02D-06 F= -1.94D-08
     Reject lnstep minimum 1.005D+00 FVal=-1.628377215897D-01 Lims=  0.00D+00  1.00D+00
     ILin= 3 X=2.000D+00 Y=-1.628357564215D-01 DE=-5.07D-08 F=  3.94D-06
     An  expanding polynomial of degree  3 produced  1.0064
     Minimum is close to point  2 DX=  6.37D-03 DF= -8.06D-11 DXR=  6.33D-03 DFR=  4.00D-05 which will be used.
 Iteration  16 EE=-0.162837721542473     Delta-E=       -0.000002015800 Grad=1.359D-05 Max rot=    0.0002 deg.
 QCNR:  CnvC1=1.36D-10 CnvC2=1.36D-09
 LinEq1:  Iter=  0 NonCon=     1 RMS=4.58D-07 Max=6.10D-06 NDo=     1
 LinEq1:  Iter=  1 NonCon=     1 RMS=1.49D-07 Max=2.19D-06 NDo=     1
 LinEq1:  Iter=  2 NonCon=     1 RMS=3.40D-08 Max=4.60D-07 NDo=     1
 LinEq1:  Iter=  3 NonCon=     1 RMS=8.38D-09 Max=1.70D-07 NDo=     1
 LinEq1:  Iter=  4 NonCon=     1 RMS=1.77D-09 Max=3.42D-08 NDo=     1
 LinEq1:  Iter=  5 NonCon=     1 RMS=3.56D-10 Max=6.55D-09 NDo=     1
 LinEq1:  Iter=  6 NonCon=     1 RMS=6.93D-11 Max=1.54D-09 NDo=     1
 LinEq1:  Iter=  7 NonCon=     0 RMS=1.90D-11 Max=3.77D-10 NDo=     1
 Linear equations converged to 1.359D-10 1.359D-09 after     7 iterations.
 Angle between quadratic step and gradient=  58.13 degrees.
     ILin= 1 X=0.000D+00 Y=-1.628377215425D-01 DE= 0.00D+00 F= -1.25D-09
     ILin= 2 X=1.000D+00 Y=-1.628377221662D-01 DE=-6.24D-10
 Iteration  17 EE=-0.162837722166159     Delta-E=       -0.000000000624 Grad=1.559D-07 Max rot=    0.0000 deg.
 Rotation gradient small -- convergence achieved.
 SCF Done:  E(UPM6) = -0.162837722166     a.u. after   17 cycles
            Convg  =    0.1559D-06                    56 Fock formations.
              S**2 =  0.8047                  -V/T =  0.9963
 <Sx>= 0.0000 <Sy>= 0.0000 <Sz>= 0.5000 <S**2>= 0.8047 S= 0.5270
 <L.S>= 0.000000000000E+00
 Annihilation of the first spin contaminant:
 S**2 before annihilation     0.8047,   after     0.7502
 Leave Link  508 at Thu Feb  4 15:33:13 2021, MaxMem=    33554432 cpu:         0.2
 (Enter /apps/applications/gaussian/G09.D01/2/default/g09/l801.exe)
 Range of M.O.s used for correlation:     1    63
 NBasis=    63 NAE=    38 NBE=    37 NFC=     0 NFV=     0
 NROrb=     63 NOA=    38 NOB=    37 NVA=    25 NVB=    26
 Leave Link  801 at Thu Feb  4 15:33:13 2021, MaxMem=    33554432 cpu:         0.0
 (Enter /apps/applications/gaussian/G09.D01/2/default/g09/l1101.exe)
 Using compressed storage, NAtomX=    24.
 Will process     25 centers per pass.
 Leave Link 1101 at Thu Feb  4 15:33:13 2021, MaxMem=    33554432 cpu:         0.1
 (Enter /apps/applications/gaussian/G09.D01/2/default/g09/l1102.exe)
 Symmetrizing basis deriv contribution to polar:
 IMax=3 JMax=2 DiffMx= 0.00D+00
 Leave Link 1102 at Thu Feb  4 15:33:13 2021, MaxMem=    33554432 cpu:         0.0
 (Enter /apps/applications/gaussian/G09.D01/2/default/g09/l1110.exe)
 Forming Gx(P) for the SCF density, NAtomX=    24.
 Integral derivatives from FoFJK, PRISM(SPDF).
 Do as many integral derivatives as possible in FoFJK.
 G2DrvN: MDV=      33495245.
 G2DrvN: will do    25 centers at a time, making    1 passes.
 Calling FoFCou, ICntrl=  3107 FMM=F I1Cent=   0 AccDes= 0.00D+00.
 FoFJK:  IHMeth=40 ICntrl=    3107 DoSepK=F KAlg= 0 I1Cent=   0 FoldK=F
 IRaf=         0 NMat=   1 IRICut=       1 DoRegI=T DoRafI=F ISym2E= 0.
 FoFCou: FMM=F IPFlag=           0 FMFlag=      100000 FMFlg1=           0
         NFxFlg=           0 DoJE=F BraDBF=F KetDBF=F FulRan=T
         wScrn=  0.000000 ICntrl=    3107 IOpCl=  1 I1Cent=           0 NGrid=           0
         NMat0=    1 NMatS0=      1 NMatT0=    0 NMatD0=    1 NMtDS0=    0 NMtDT0=    0
 Symmetry not used in FoFCou.
 End of G2Drv F.D. properties file   721 does not exist.
 End of G2Drv F.D. properties file   722 does not exist.
 End of G2Drv F.D. properties file   788 does not exist.
 Leave Link 1110 at Thu Feb  4 15:33:13 2021, MaxMem=    33554432 cpu:         0.1
 (Enter /apps/applications/gaussian/G09.D01/2/default/g09/l1002.exe)
 Minotr:  UHF open shell wavefunction.
          IDoAtm=111111111111111111111111
          Direct CPHF calculation.
          Differentiating once with respect to electric field.
                with respect to dipole field.
          Differentiating once with respect to nuclear coordinates.
          Electric field/nuclear overlap derivatives assumed to be zero.
          Requested convergence is 1.0D-08 RMS, and 1.0D-07 maximum.
          NewPWx=T KeepS1=F KeepF1=F KeepIn=T MapXYZ=F SortEE=F KeepMc=T.
          MDV=      33495171 using IRadAn=       2.
 Keep J ints in memory in canonical form, NReq=894630.
 FoFCou: FMM=F IPFlag=           0 FMFlag=           0 FMFlg1=           0
         NFxFlg=           0 DoJE=F BraDBF=F KetDBF=F FulRan=T
         wScrn=  0.000000 ICntrl=     600 IOpCl=  2 I1Cent=           0 NGrid=           0
         NMat0=    1 NMatS0=    141 NMatT0=    0 NMatD0=    1 NMtDS0=    0 NMtDT0=    0
 Symmetry not used in FoFCou.
          Solving linear equations separately, MaxMat=       0.
          There are    75 degrees of freedom in the 1st order CPHF.  IDoFFX=5 NUNeed=    75.
 LinEq1:  Iter=  0 NonCon=    75 RMS=1.76D-01 Max=2.54D+00 NDo=    75
 AX will form    75 AO Fock derivatives at one time.
 LinEq1:  Iter=  1 NonCon=    75 RMS=3.01D-02 Max=3.17D-01 NDo=    75
 LinEq1:  Iter=  2 NonCon=    75 RMS=5.29D-03 Max=1.18D-01 NDo=    75
 LinEq1:  Iter=  3 NonCon=    75 RMS=1.10D-03 Max=1.67D-02 NDo=    75
 LinEq1:  Iter=  4 NonCon=    75 RMS=2.80D-04 Max=5.48D-03 NDo=    75
 LinEq1:  Iter=  5 NonCon=    75 RMS=6.41D-05 Max=1.51D-03 NDo=    75
 LinEq1:  Iter=  6 NonCon=    75 RMS=1.29D-05 Max=1.57D-04 NDo=    75
 LinEq1:  Iter=  7 NonCon=    64 RMS=2.86D-06 Max=3.42D-05 NDo=    75
 LinEq1:  Iter=  8 NonCon=    32 RMS=6.12D-07 Max=5.46D-06 NDo=    75
 LinEq1:  Iter=  9 NonCon=    13 RMS=1.02D-07 Max=1.34D-06 NDo=    75
 LinEq1:  Iter= 10 NonCon=     3 RMS=2.17D-08 Max=5.54D-07 NDo=    75
 LinEq1:  Iter= 11 NonCon=     2 RMS=6.03D-09 Max=1.29D-07 NDo=    75
 LinEq1:  Iter= 12 NonCon=     0 RMS=1.20D-09 Max=1.93D-08 NDo=    75
 Linear equations converged to 1.000D-08 1.000D-07 after    12 iterations.
 FullF1:  Do perturbations    1 to     3.
 Isotropic polarizability for W=    0.000000       78.78 Bohr**3.
 End of Minotr F.D. properties file   721 does not exist.
 End of Minotr F.D. properties file   722 does not exist.
 End of Minotr F.D. properties file   788 does not exist.
 Leave Link 1002 at Thu Feb  4 15:33:14 2021, MaxMem=    33554432 cpu:         0.9
 (Enter /apps/applications/gaussian/G09.D01/2/default/g09/l601.exe)
 Copying SCF densities to generalized density rwf, IOpCl= 1 IROHF=0.

 **********************************************************************

            Population analysis using the SCF density.

 **********************************************************************

 Alpha  occ. eigenvalues --   -1.26000  -1.21511  -1.18106  -1.12430  -1.10993
 Alpha  occ. eigenvalues --   -1.09506  -1.06294  -0.99330  -0.97499  -0.88752
 Alpha  occ. eigenvalues --   -0.82247  -0.76718  -0.72415  -0.70681  -0.69804
 Alpha  occ. eigenvalues --   -0.67505  -0.65833  -0.64139  -0.63395  -0.59976
 Alpha  occ. eigenvalues --   -0.58388  -0.57490  -0.56578  -0.55460  -0.53870
 Alpha  occ. eigenvalues --   -0.53381  -0.51480  -0.50231  -0.49408  -0.48640
 Alpha  occ. eigenvalues --   -0.47404  -0.46736  -0.45859  -0.44954  -0.40782
 Alpha  occ. eigenvalues --   -0.39860  -0.37290  -0.36730
 Alpha virt. eigenvalues --   -0.01506  -0.00386  -0.00126   0.01139   0.07166
 Alpha virt. eigenvalues --    0.08206   0.08904   0.10330   0.11144   0.12217
 Alpha virt. eigenvalues --    0.12507   0.13386   0.14976   0.15810   0.16360
 Alpha virt. eigenvalues --    0.17132   0.17529   0.17709   0.18749   0.18962
 Alpha virt. eigenvalues --    0.19679   0.19870   0.20522   0.20943   0.23010
  Beta  occ. eigenvalues --   -1.21936  -1.18206  -1.17998  -1.12424  -1.09490
  Beta  occ. eigenvalues --   -1.06262  -1.01421  -0.99301  -0.97435  -0.88547
  Beta  occ. eigenvalues --   -0.81732  -0.75711  -0.72361  -0.70597  -0.68604
  Beta  occ. eigenvalues --   -0.64422  -0.63357  -0.62436  -0.61112  -0.58849
  Beta  occ. eigenvalues --   -0.57330  -0.56972  -0.55675  -0.54067  -0.53713
  Beta  occ. eigenvalues --   -0.52600  -0.51133  -0.50251  -0.49291  -0.48539
  Beta  occ. eigenvalues --   -0.46740  -0.46684  -0.45729  -0.44946  -0.39872
  Beta  occ. eigenvalues --   -0.36730  -0.34043
  Beta virt. eigenvalues --   -0.03358  -0.01503   0.01139   0.01878   0.02325
  Beta virt. eigenvalues --    0.08177   0.08611   0.08906   0.10722   0.12020
  Beta virt. eigenvalues --    0.12220   0.12544   0.13385   0.14947   0.15810
  Beta virt. eigenvalues --    0.16360   0.17094   0.17520   0.17714   0.18749
  Beta virt. eigenvalues --    0.18961   0.19677   0.19857   0.20515   0.20952
  Beta virt. eigenvalues --    0.23010
          Condensed to atoms (all electrons):
               1          2          3          4          5          6
     1  O    6.382247   0.000000   0.000000   0.000000   0.000000   0.000000
     2  C    0.000000   3.519379   0.000000   0.000000   0.000000   0.000000
     3  C    0.000000   0.000000   4.418750   0.000000   0.000000   0.000000
     4  C    0.000000   0.000000   0.000000   4.207276   0.000000   0.000000
     5  C    0.000000   0.000000   0.000000   0.000000   4.300237   0.000000
     6  C    0.000000   0.000000   0.000000   0.000000   0.000000   4.056677
     7  H    0.000000   0.000000   0.000000   0.000000   0.000000   0.000000
     8  C    0.000000   0.000000   0.000000   0.000000   0.000000   0.000000
     9  O    0.000000   0.000000   0.000000   0.000000   0.000000   0.000000
    10  C    0.000000   0.000000   0.000000   0.000000   0.000000   0.000000
    11  H    0.000000   0.000000   0.000000   0.000000   0.000000   0.000000
    12  H    0.000000   0.000000   0.000000   0.000000   0.000000   0.000000
    13  H    0.000000   0.000000   0.000000   0.000000   0.000000   0.000000
    14  H    0.000000   0.000000   0.000000   0.000000   0.000000   0.000000
    15  H    0.000000   0.000000   0.000000   0.000000   0.000000   0.000000
    16  H    0.000000   0.000000   0.000000   0.000000   0.000000   0.000000
    17  H    0.000000   0.000000   0.000000   0.000000   0.000000   0.000000
    18  H    0.000000   0.000000   0.000000   0.000000   0.000000   0.000000
    19  H    0.000000   0.000000   0.000000   0.000000   0.000000   0.000000
    20  H    0.000000   0.000000   0.000000   0.000000   0.000000   0.000000
    21  O    0.000000   0.000000   0.000000   0.000000   0.000000   0.000000
    22  O    0.000000   0.000000   0.000000   0.000000   0.000000   0.000000
    23  O    0.000000   0.000000   0.000000   0.000000   0.000000   0.000000
    24  O    0.000000   0.000000   0.000000   0.000000   0.000000   0.000000
               7          8          9         10         11         12
     1  O    0.000000   0.000000   0.000000   0.000000   0.000000   0.000000
     2  C    0.000000   0.000000   0.000000   0.000000   0.000000   0.000000
     3  C    0.000000   0.000000   0.000000   0.000000   0.000000   0.000000
     4  C    0.000000   0.000000   0.000000   0.000000   0.000000   0.000000
     5  C    0.000000   0.000000   0.000000   0.000000   0.000000   0.000000
     6  C    0.000000   0.000000   0.000000   0.000000   0.000000   0.000000
     7  H    0.832655   0.000000   0.000000   0.000000   0.000000   0.000000
     8  C    0.000000   3.458368   0.000000   0.000000   0.000000   0.000000
     9  O    0.000000   0.000000   6.478059   0.000000   0.000000   0.000000
    10  C    0.000000   0.000000   0.000000   4.621041   0.000000   0.000000
    11  H    0.000000   0.000000   0.000000   0.000000   0.707941   0.000000
    12  H    0.000000   0.000000   0.000000   0.000000   0.000000   0.787789
    13  H    0.000000   0.000000   0.000000   0.000000   0.000000   0.000000
    14  H    0.000000   0.000000   0.000000   0.000000   0.000000   0.000000
    15  H    0.000000   0.000000   0.000000   0.000000   0.000000   0.000000
    16  H    0.000000   0.000000   0.000000   0.000000   0.000000   0.000000
    17  H    0.000000   0.000000   0.000000   0.000000   0.000000   0.000000
    18  H    0.000000   0.000000   0.000000   0.000000   0.000000   0.000000
    19  H    0.000000   0.000000   0.000000   0.000000   0.000000   0.000000
    20  H    0.000000   0.000000   0.000000   0.000000   0.000000   0.000000
    21  O    0.000000   0.000000   0.000000   0.000000   0.000000   0.000000
    22  O    0.000000   0.000000   0.000000   0.000000   0.000000   0.000000
    23  O    0.000000   0.000000   0.000000   0.000000   0.000000   0.000000
    24  O    0.000000   0.000000   0.000000   0.000000   0.000000   0.000000
              13         14         15         16         17         18
     1  O    0.000000   0.000000   0.000000   0.000000   0.000000   0.000000
     2  C    0.000000   0.000000   0.000000   0.000000   0.000000   0.000000
     3  C    0.000000   0.000000   0.000000   0.000000   0.000000   0.000000
     4  C    0.000000   0.000000   0.000000   0.000000   0.000000   0.000000
     5  C    0.000000   0.000000   0.000000   0.000000   0.000000   0.000000
     6  C    0.000000   0.000000   0.000000   0.000000   0.000000   0.000000
     7  H    0.000000   0.000000   0.000000   0.000000   0.000000   0.000000
     8  C    0.000000   0.000000   0.000000   0.000000   0.000000   0.000000
     9  O    0.000000   0.000000   0.000000   0.000000   0.000000   0.000000
    10  C    0.000000   0.000000   0.000000   0.000000   0.000000   0.000000
    11  H    0.000000   0.000000   0.000000   0.000000   0.000000   0.000000
    12  H    0.000000   0.000000   0.000000   0.000000   0.000000   0.000000
    13  H    0.812033   0.000000   0.000000   0.000000   0.000000   0.000000
    14  H    0.000000   0.849092   0.000000   0.000000   0.000000   0.000000
    15  H    0.000000   0.000000   0.852497   0.000000   0.000000   0.000000
    16  H    0.000000   0.000000   0.000000   0.842433   0.000000   0.000000
    17  H    0.000000   0.000000   0.000000   0.000000   0.813764   0.000000
    18  H    0.000000   0.000000   0.000000   0.000000   0.000000   0.793318
    19  H    0.000000   0.000000   0.000000   0.000000   0.000000   0.000000
    20  H    0.000000   0.000000   0.000000   0.000000   0.000000   0.000000
    21  O    0.000000   0.000000   0.000000   0.000000   0.000000   0.000000
    22  O    0.000000   0.000000   0.000000   0.000000   0.000000   0.000000
    23  O    0.000000   0.000000   0.000000   0.000000   0.000000   0.000000
    24  O    0.000000   0.000000   0.000000   0.000000   0.000000   0.000000
              19         20         21         22         23         24
     1  O    0.000000   0.000000   0.000000   0.000000   0.000000   0.000000
     2  C    0.000000   0.000000   0.000000   0.000000   0.000000   0.000000
     3  C    0.000000   0.000000   0.000000   0.000000   0.000000   0.000000
     4  C    0.000000   0.000000   0.000000   0.000000   0.000000   0.000000
     5  C    0.000000   0.000000   0.000000   0.000000   0.000000   0.000000
     6  C    0.000000   0.000000   0.000000   0.000000   0.000000   0.000000
     7  H    0.000000   0.000000   0.000000   0.000000   0.000000   0.000000
     8  C    0.000000   0.000000   0.000000   0.000000   0.000000   0.000000
     9  O    0.000000   0.000000   0.000000   0.000000   0.000000   0.000000
    10  C    0.000000   0.000000   0.000000   0.000000   0.000000   0.000000
    11  H    0.000000   0.000000   0.000000   0.000000   0.000000   0.000000
    12  H    0.000000   0.000000   0.000000   0.000000   0.000000   0.000000
    13  H    0.000000   0.000000   0.000000   0.000000   0.000000   0.000000
    14  H    0.000000   0.000000   0.000000   0.000000   0.000000   0.000000
    15  H    0.000000   0.000000   0.000000   0.000000   0.000000   0.000000
    16  H    0.000000   0.000000   0.000000   0.000000   0.000000   0.000000
    17  H    0.000000   0.000000   0.000000   0.000000   0.000000   0.000000
    18  H    0.000000   0.000000   0.000000   0.000000   0.000000   0.000000
    19  H    0.806891   0.000000   0.000000   0.000000   0.000000   0.000000
    20  H    0.000000   0.798317   0.000000   0.000000   0.000000   0.000000
    21  O    0.000000   0.000000   6.189938   0.000000   0.000000   0.000000
    22  O    0.000000   0.000000   0.000000   6.313894   0.000000   0.000000
    23  O    0.000000   0.000000   0.000000   0.000000   6.186573   0.000000
    24  O    0.000000   0.000000   0.000000   0.000000   0.000000   5.970832
          Atomic-Atomic Spin Densities.
               1          2          3          4          5          6
     1  O   -0.031301   0.000000   0.000000   0.000000   0.000000   0.000000
     2  C    0.000000  -0.119988   0.000000   0.000000   0.000000   0.000000
     3  C    0.000000   0.000000  -0.020945   0.000000   0.000000   0.000000
     4  C    0.000000   0.000000   0.000000   0.000036   0.000000   0.000000
     5  C    0.000000   0.000000   0.000000   0.000000   0.001240   0.000000
     6  C    0.000000   0.000000   0.000000   0.000000   0.000000  -0.000049
     7  H    0.000000   0.000000   0.000000   0.000000   0.000000   0.000000
     8  C    0.000000   0.000000   0.000000   0.000000   0.000000   0.000000
     9  O    0.000000   0.000000   0.000000   0.000000   0.000000   0.000000
    10  C    0.000000   0.000000   0.000000   0.000000   0.000000   0.000000
    11  H    0.000000   0.000000   0.000000   0.000000   0.000000   0.000000
    12  H    0.000000   0.000000   0.000000   0.000000   0.000000   0.000000
    13  H    0.000000   0.000000   0.000000   0.000000   0.000000   0.000000
    14  H    0.000000   0.000000   0.000000   0.000000   0.000000   0.000000
    15  H    0.000000   0.000000   0.000000   0.000000   0.000000   0.000000
    16  H    0.000000   0.000000   0.000000   0.000000   0.000000   0.000000
    17  H    0.000000   0.000000   0.000000   0.000000   0.000000   0.000000
    18  H    0.000000   0.000000   0.000000   0.000000   0.000000   0.000000
    19  H    0.000000   0.000000   0.000000   0.000000   0.000000   0.000000
    20  H    0.000000   0.000000   0.000000   0.000000   0.000000   0.000000
    21  O    0.000000   0.000000   0.000000   0.000000   0.000000   0.000000
    22  O    0.000000   0.000000   0.000000   0.000000   0.000000   0.000000
    23  O    0.000000   0.000000   0.000000   0.000000   0.000000   0.000000
    24  O    0.000000   0.000000   0.000000   0.000000   0.000000   0.000000
               7          8          9         10         11         12
     1  O    0.000000   0.000000   0.000000   0.000000   0.000000   0.000000
     2  C    0.000000   0.000000   0.000000   0.000000   0.000000   0.000000
     3  C    0.000000   0.000000   0.000000   0.000000   0.000000   0.000000
     4  C    0.000000   0.000000   0.000000   0.000000   0.000000   0.000000
     5  C    0.000000   0.000000   0.000000   0.000000   0.000000   0.000000
     6  C    0.000000   0.000000   0.000000   0.000000   0.000000   0.000000
     7  H    0.000003   0.000000   0.000000   0.000000   0.000000   0.000000
     8  C    0.000000   0.000005   0.000000   0.000000   0.000000   0.000000
     9  O    0.000000   0.000000  -0.000001   0.000000   0.000000   0.000000
    10  C    0.000000   0.000000   0.000000  -0.000002   0.000000   0.000000
    11  H    0.000000   0.000000   0.000000   0.000000  -0.000005   0.000000
    12  H    0.000000   0.000000   0.000000   0.000000   0.000000   0.000155
    13  H    0.000000   0.000000   0.000000   0.000000   0.000000   0.000000
    14  H    0.000000   0.000000   0.000000   0.000000   0.000000   0.000000
    15  H    0.000000   0.000000   0.000000   0.000000   0.000000   0.000000
    16  H    0.000000   0.000000   0.000000   0.000000   0.000000   0.000000
    17  H    0.000000   0.000000   0.000000   0.000000   0.000000   0.000000
    18  H    0.000000   0.000000   0.000000   0.000000   0.000000   0.000000
    19  H    0.000000   0.000000   0.000000   0.000000   0.000000   0.000000
    20  H    0.000000   0.000000   0.000000   0.000000   0.000000   0.000000
    21  O    0.000000   0.000000   0.000000   0.000000   0.000000   0.000000
    22  O    0.000000   0.000000   0.000000   0.000000   0.000000   0.000000
    23  O    0.000000   0.000000   0.000000   0.000000   0.000000   0.000000
    24  O    0.000000   0.000000   0.000000   0.000000   0.000000   0.000000
              13         14         15         16         17         18
     1  O    0.000000   0.000000   0.000000   0.000000   0.000000   0.000000
     2  C    0.000000   0.000000   0.000000   0.000000   0.000000   0.000000
     3  C    0.000000   0.000000   0.000000   0.000000   0.000000   0.000000
     4  C    0.000000   0.000000   0.000000   0.000000   0.000000   0.000000
     5  C    0.000000   0.000000   0.000000   0.000000   0.000000   0.000000
     6  C    0.000000   0.000000   0.000000   0.000000   0.000000   0.000000
     7  H    0.000000   0.000000   0.000000   0.000000   0.000000   0.000000
     8  C    0.000000   0.000000   0.000000   0.000000   0.000000   0.000000
     9  O    0.000000   0.000000   0.000000   0.000000   0.000000   0.000000
    10  C    0.000000   0.000000   0.000000   0.000000   0.000000   0.000000
    11  H    0.000000   0.000000   0.000000   0.000000   0.000000   0.000000
    12  H    0.000000   0.000000   0.000000   0.000000   0.000000   0.000000
    13  H   -0.001452   0.000000   0.000000   0.000000   0.000000   0.000000
    14  H    0.000000  -0.000440   0.000000   0.000000   0.000000   0.000000
    15  H    0.000000   0.000000  -0.000086   0.000000   0.000000   0.000000
    16  H    0.000000   0.000000   0.000000  -0.000023   0.000000   0.000000
    17  H    0.000000   0.000000   0.000000   0.000000  -0.000567   0.000000
    18  H    0.000000   0.000000   0.000000   0.000000   0.000000   0.000000
    19  H    0.000000   0.000000   0.000000   0.000000   0.000000   0.000000
    20  H    0.000000   0.000000   0.000000   0.000000   0.000000   0.000000
    21  O    0.000000   0.000000   0.000000   0.000000   0.000000   0.000000
    22  O    0.000000   0.000000   0.000000   0.000000   0.000000   0.000000
    23  O    0.000000   0.000000   0.000000   0.000000   0.000000   0.000000
    24  O    0.000000   0.000000   0.000000   0.000000   0.000000   0.000000
              19         20         21         22         23         24
     1  O    0.000000   0.000000   0.000000   0.000000   0.000000   0.000000
     2  C    0.000000   0.000000   0.000000   0.000000   0.000000   0.000000
     3  C    0.000000   0.000000   0.000000   0.000000   0.000000   0.000000
     4  C    0.000000   0.000000   0.000000   0.000000   0.000000   0.000000
     5  C    0.000000   0.000000   0.000000   0.000000   0.000000   0.000000
     6  C    0.000000   0.000000   0.000000   0.000000   0.000000   0.000000
     7  H    0.000000   0.000000   0.000000   0.000000   0.000000   0.000000
     8  C    0.000000   0.000000   0.000000   0.000000   0.000000   0.000000
     9  O    0.000000   0.000000   0.000000   0.000000   0.000000   0.000000
    10  C    0.000000   0.000000   0.000000   0.000000   0.000000   0.000000
    11  H    0.000000   0.000000   0.000000   0.000000   0.000000   0.000000
    12  H    0.000000   0.000000   0.000000   0.000000   0.000000   0.000000
    13  H    0.000000   0.000000   0.000000   0.000000   0.000000   0.000000
    14  H    0.000000   0.000000   0.000000   0.000000   0.000000   0.000000
    15  H    0.000000   0.000000   0.000000   0.000000   0.000000   0.000000
    16  H    0.000000   0.000000   0.000000   0.000000   0.000000   0.000000
    17  H    0.000000   0.000000   0.000000   0.000000   0.000000   0.000000
    18  H    0.000000   0.000000   0.000000   0.000000   0.000000   0.000000
    19  H    0.000000   0.000000   0.000000   0.000000   0.000000   0.000000
    20  H    0.000000   0.000000   0.000000   0.000000   0.000000   0.000000
    21  O    0.000000   0.000000   0.000058   0.000000   0.000000   0.000000
    22  O    0.000000   0.000000   0.000000   0.000016   0.000000   0.000000
    23  O    0.000000   0.000000   0.000000   0.000000   0.702927   0.000000
    24  O    0.000000   0.000000   0.000000   0.000000   0.000000   0.470418
 Mulliken charges and spin densities:
               1          2
     1  O   -0.382247  -0.031301
     2  C    0.480621  -0.119988
     3  C   -0.418750  -0.020945
     4  C   -0.207276   0.000036
     5  C   -0.300237   0.001240
     6  C   -0.056677  -0.000049
     7  H    0.167345   0.000003
     8  C    0.541632   0.000005
     9  O   -0.478059  -0.000001
    10  C   -0.621041  -0.000002
    11  H    0.292059  -0.000005
    12  H    0.212211   0.000155
    13  H    0.187967  -0.001452
    14  H    0.150908  -0.000440
    15  H    0.147503  -0.000086
    16  H    0.157567  -0.000023
    17  H    0.186236  -0.000567
    18  H    0.206682   0.000000
    19  H    0.193109   0.000000
    20  H    0.201683   0.000000
    21  O   -0.189938   0.000058
    22  O   -0.313894   0.000016
    23  O   -0.186573   0.702927
    24  O    0.029168   0.470418
 Sum of Mulliken charges =   0.00000   1.00000
 Mulliken charges and spin densities with hydrogens summed into heavy atoms:
               1          2
     1  O   -0.382247  -0.031301
     2  C    0.480621  -0.119988
     3  C   -0.018572  -0.022242
     4  C    0.091135  -0.000489
     5  C    0.043567   0.000650
     6  C    0.110668  -0.000046
     8  C    0.541632   0.000005
     9  O   -0.478059  -0.000001
    10  C   -0.019567  -0.000002
    21  O   -0.189938   0.000058
    22  O   -0.021835   0.000010
    23  O   -0.186573   0.702927
    24  O    0.029168   0.470418
 APT charges:
               1
     1  O   -0.780889
     2  C    1.173157
     3  C   -0.660599
     4  C   -0.134351
     5  C   -0.349164
     6  C   -0.029258
     7  H    0.131296
     8  C    1.121190
     9  O   -0.758009
    10  C   -0.955004
    11  H    0.293909
    12  H    0.215183
    13  H    0.204409
    14  H    0.140409
    15  H    0.138204
    16  H    0.150679
    17  H    0.174967
    18  H    0.252278
    19  H    0.229924
    20  H    0.242444
    21  O   -0.146580
    22  O   -0.380916
    23  O   -0.246996
    24  O   -0.026446
 Sum of APT charges =  -0.00016
 APT charges with hydrogens summed into heavy atoms:
               1
     1  O   -0.780889
     2  C    1.173157
     3  C   -0.241008
     4  C    0.144262
     5  C   -0.023518
     6  C    0.102038
     8  C    1.121190
     9  O   -0.758009
    10  C   -0.230357
    21  O   -0.146580
    22  O   -0.087006
    23  O   -0.246996
    24  O   -0.026446
 Charge=              0.0000 electrons
 Dipole moment (field-independent basis, Debye):
    X=             -3.6635    Y=             -0.2935    Z=              0.7566  Tot=              3.7523
 N-N= 5.154944115199D+02 E-N=-9.348021292689D+02  KE=-4.417042733503D+01
  Exact polarizability:  84.284   4.542  65.076  -0.128 -15.057  86.978
 Approx polarizability:  58.280   3.418  46.846  -4.555 -15.510  66.889
 Leave Link  601 at Thu Feb  4 15:33:14 2021, MaxMem=    33554432 cpu:         0.1
 (Enter /apps/applications/gaussian/G09.D01/2/default/g09/l701.exe)
 Compute integral second derivatives.
 ... and contract with generalized density number  0.
 Leave Link  701 at Thu Feb  4 15:33:14 2021, MaxMem=    33554432 cpu:         0.1
 (Enter /apps/applications/gaussian/G09.D01/2/default/g09/l702.exe)
 L702 exits ... SP integral derivatives will be done elsewhere.
 Leave Link  702 at Thu Feb  4 15:33:15 2021, MaxMem=    33554432 cpu:         0.1
 (Enter /apps/applications/gaussian/G09.D01/2/default/g09/l703.exe)
 Compute integral second derivatives, UseDBF=F ICtDFT=           0.
 Integral derivatives from FoFJK, PRISM(SPDF).
 Calling FoFJK, ICntrl=    100127 FMM=F ISym2X=0 I1Cent= 0 IOpClX= 1 NMat=1 NMatS=1 NMatT=0.
 FoFJK:  IHMeth=40 ICntrl=  100127 DoSepK=F KAlg= 0 I1Cent=   0 FoldK=F
 IRaf=         0 NMat=   1 IRICut=       1 DoRegI=T DoRafI=F ISym2E= 0.
 FoFCou: FMM=F IPFlag=           0 FMFlag=      100000 FMFlg1=         800
         NFxFlg=           0 DoJE=F BraDBF=F KetDBF=F FulRan=T
         wScrn=  0.000000 ICntrl=  100127 IOpCl=  1 I1Cent=           0 NGrid=           0
         NMat0=    1 NMatS0=      1 NMatT0=    0 NMatD0=    1 NMtDS0=    0 NMtDT0=    0
 Symmetry not used in FoFCou.
 Leave Link  703 at Thu Feb  4 15:33:15 2021, MaxMem=    33554432 cpu:         0.1
 (Enter /apps/applications/gaussian/G09.D01/2/default/g09/l716.exe)
 Dipole        =-1.44133988D+00-1.15487851D-01 2.97684303D-01
 Polarizability= 8.42836323D+01 4.54176450D+00 6.50756235D+01
                -1.28294634D-01-1.50573776D+01 8.69782856D+01
 HyperPolar    =-4.22847796D+01-3.34383298D+00-4.20150955D+01
                -7.71190486D+01 3.13309645D+01 3.31009049D+01
                 4.14510992D+01-6.04208501D+01 6.76455805D-01
                -2.58683591D+01
 -------------------------------------------------------------------
 Center     Atomic                   Forces (Hartrees/Bohr)
 Number     Number              X              Y              Z
 -------------------------------------------------------------------
      1        8          -0.000000144    0.000000252   -0.000000621
      2        6           0.000000023   -0.000000218    0.000000373
      3        6          -0.000000313    0.000000173   -0.000000107
      4        6           0.000000365    0.000000233   -0.000000050
      5        6           0.000000083   -0.000000115    0.000000032
      6        6           0.000000947    0.000000427    0.000000018
      7        1           0.000000020   -0.000000112    0.000000124
      8        6          -0.000011043   -0.000006793   -0.000002612
      9        8          -0.000003362   -0.000000410    0.000001832
     10        6          -0.000035123   -0.000015108    0.000003452
     11        1           0.000000145   -0.000000641   -0.000002095
     12        1          -0.000000131   -0.000000042    0.000000342
     13        1           0.000000043    0.000000011    0.000000010
     14        1           0.000000173    0.000000125    0.000000083
     15        1           0.000000034   -0.000000067   -0.000000122
     16        1           0.000000052   -0.000000036    0.000000099
     17        1          -0.000000188   -0.000000056    0.000000048
     18        1           0.000045064   -0.000040287   -0.000002647
     19        1          -0.000010551    0.000014382    0.000040864
     20        1           0.000014170    0.000047448   -0.000041942
     21        8          -0.000000937    0.000000945   -0.000000213
     22        8           0.000000783   -0.000000031    0.000003065
     23        8           0.000000065   -0.000000084    0.000000022
     24        8          -0.000000173    0.000000005    0.000000048
 -------------------------------------------------------------------
 Cartesian Forces:  Max     0.000047448 RMS     0.000012662
 Leave Link  716 at Thu Feb  4 15:33:15 2021, MaxMem=    33554432 cpu:         0.1
 (Enter /apps/applications/gaussian/G09.D01/2/default/g09/l103.exe)

 GradGradGradGradGradGradGradGradGradGradGradGradGradGradGradGradGradGrad
 Berny optimization.
 Search for a saddle point.
 Step number   1 out of a maximum of  100
 All quantities printed in internal units (Hartrees-Bohrs-Radians)
 Swapping is turned off.
 Second derivative matrix not updated -- analytic derivatives used.
 ITU=  0
     Eigenvalues ---   -0.00026   0.00010   0.00017   0.00025   0.00050
     Eigenvalues ---    0.00095   0.00167   0.00175   0.00481   0.00697
     Eigenvalues ---    0.00704   0.00741   0.01320   0.01439   0.01706
     Eigenvalues ---    0.02537   0.02966   0.04070   0.04180   0.04362
     Eigenvalues ---    0.04618   0.04718   0.05006   0.05364   0.05614
     Eigenvalues ---    0.05973   0.06041   0.06400   0.07047   0.07865
     Eigenvalues ---    0.08028   0.08809   0.09401   0.11329   0.11893
     Eigenvalues ---    0.13284   0.14313   0.15626   0.18030   0.19041
     Eigenvalues ---    0.19581   0.21074   0.24921   0.26436   0.29839
     Eigenvalues ---    0.33538   0.38297   0.46394   0.48673   0.49506
     Eigenvalues ---    0.54961   0.55663   0.56608   0.57907   0.60400
     Eigenvalues ---    0.61316   0.61659   0.63757   0.65350   0.66832
     Eigenvalues ---    0.67812   0.70920   0.73510   0.79872   1.66224
     Eigenvalues ---    1.83088
 Eigenvectors required to have negative eigenvalues:
                          Z14       Z17       X16       X12       Z1
   1                    0.29793   0.29004  -0.23617  -0.21134  -0.21115
                          Y9        Z15       Z9        X9        Z16
   1                   -0.20865   0.20519   0.19059   0.19019   0.17967
 RFO step:  Lambda0=6.576884220D-14 Lambda=-3.56076746D-08.
 Linear search not attempted -- option 19 set.
 TrRot=  0.000041  0.000041 -0.000001  0.000004  0.000002  0.000004
 Variable       Old X    -DE/DX   Delta X   Delta X   Delta X     New X
                                 (Linear)    (Quad)   (Total)
    X1       -2.40907   0.00000   0.00000   0.00004   0.00008  -2.40900
    Y1        2.74982   0.00000   0.00000   0.00009   0.00011   2.74993
    Z1        6.65143   0.00000   0.00000   0.00004   0.00004   6.65147
    X2       -2.94685   0.00000   0.00000   0.00004   0.00006  -2.94678
    Y2        3.47799   0.00000   0.00000   0.00005   0.00007   3.47806
    Z2        4.59156   0.00000   0.00000   0.00003   0.00003   4.59159
    X3       -4.83054   0.00000   0.00000   0.00007   0.00009  -4.83044
    Y3        2.65802   0.00000   0.00000   0.00000   0.00000   2.65802
    Z3        2.67800   0.00000   0.00000   0.00002   0.00003   2.67803
    X4       -7.48228   0.00000   0.00000   0.00005   0.00007  -7.48221
    Y4        3.61664   0.00000   0.00000  -0.00003  -0.00004   3.61659
    Z4        3.35886   0.00000   0.00000  -0.00001   0.00000   3.35886
    X5       -7.77956   0.00000   0.00000   0.00003   0.00003  -7.77954
    Y5        6.46176   0.00000   0.00000  -0.00004  -0.00005   6.46170
    Z5        2.86974   0.00000   0.00000  -0.00002   0.00000   2.86973
    X6      -10.10628   0.00000   0.00000  -0.00001  -0.00002 -10.10630
    Y6        7.11975   0.00000   0.00000  -0.00007  -0.00010   7.11965
    Z6        1.28420   0.00000   0.00000   0.00002   0.00004   1.28424
    X7      -10.32050   0.00000   0.00000  -0.00005  -0.00007 -10.32057
    Y7        9.20211   0.00000   0.00000  -0.00007  -0.00010   9.20201
    Z7        1.03966   0.00000   0.00000   0.00003   0.00004   1.03970
    X8      -10.04149  -0.00001   0.00000  -0.00003  -0.00004 -10.04153
    Y8        5.87807  -0.00001   0.00000  -0.00006  -0.00009   5.87797
    Z8       -1.35484   0.00000   0.00000   0.00001   0.00003  -1.35481
    X9       -8.15754   0.00000   0.00000   0.00004   0.00004  -8.15751
    Y9        6.03413   0.00000   0.00000  -0.00030  -0.00032   6.03381
    Z9       -2.63800   0.00000   0.00000   0.00011   0.00012  -2.63788
   X10      -12.39984  -0.00004   0.00000  -0.00016  -0.00015 -12.39999
   Y10        4.57446  -0.00002   0.00000   0.00027   0.00022   4.57468
   Z10       -2.17975   0.00000   0.00000  -0.00013  -0.00011  -2.17986
   X11      -14.86016   0.00000   0.00000  -0.00001  -0.00002 -14.86018
   Y11        8.29705   0.00000   0.00000  -0.00018  -0.00024   8.29681
   Z11        3.74741   0.00000   0.00000   0.00006   0.00009   3.74750
   X12       -4.28767   0.00000   0.00000   0.00007   0.00008  -4.28759
   Y12        3.36116   0.00000   0.00000  -0.00002  -0.00001   3.36115
   Z12        0.75590   0.00000   0.00000   0.00002   0.00003   0.75592
   X13       -4.82467   0.00000   0.00000   0.00010   0.00014  -4.82453
   Y13        0.56098   0.00000   0.00000   0.00000   0.00000   0.56098
   Z13        2.54259   0.00000   0.00000   0.00005   0.00006   2.54265
   X14       -8.89093   0.00000   0.00000   0.00008   0.00010  -8.89083
   Y14        2.52628   0.00000   0.00000  -0.00005  -0.00007   2.52621
   Z14        2.25116   0.00000   0.00000  -0.00003  -0.00001   2.25115
   X15       -7.92178   0.00000   0.00000   0.00003   0.00006  -7.92172
   Y15        3.17955   0.00000   0.00000  -0.00004  -0.00005   3.17949
   Z15        5.36137   0.00000   0.00000  -0.00002   0.00000   5.36137
   X16       -7.86679   0.00000   0.00000   0.00006   0.00005  -7.86673
   Y16        7.49529   0.00000   0.00000  -0.00003  -0.00004   7.49525
   Z16        4.68905   0.00000   0.00000  -0.00002  -0.00001   4.68904
   X17       -6.08378   0.00000   0.00000   0.00000  -0.00001  -6.08378
   Y17        7.21857   0.00000   0.00000  -0.00004  -0.00004   7.21853
   Z17        1.86182   0.00000   0.00000  -0.00006  -0.00005   1.86177
   X18      -14.03072   0.00005   0.00000   0.00030   0.00030 -14.03042
   Y18        5.87349  -0.00004   0.00000   0.00052   0.00046   5.87394
   Z18       -2.15336   0.00000   0.00000  -0.00093  -0.00090  -2.15426
   X19      -12.22566  -0.00001   0.00000  -0.00006  -0.00005 -12.22571
   Y19        3.78780   0.00001   0.00000  -0.00030  -0.00035   3.78746
   Z19       -4.09217   0.00004   0.00000   0.00027   0.00030  -4.09187
   X20      -12.91442   0.00001   0.00000  -0.00080  -0.00079 -12.91521
   Y20        3.03561   0.00005   0.00000   0.00094   0.00089   3.03650
   Z20       -0.87656  -0.00004   0.00000   0.00006   0.00008  -0.87649
   X21      -12.21871   0.00000   0.00000   0.00004   0.00004 -12.21867
   Y21        6.17042   0.00000   0.00000  -0.00010  -0.00015   6.17026
   Z21        2.76000   0.00000   0.00000   0.00007   0.00009   2.76009
   X22      -14.35676   0.00000   0.00000  -0.00002  -0.00003 -14.35678
   Y22        7.63927   0.00000   0.00000  -0.00020  -0.00026   7.63901
   Z22        2.04000   0.00000   0.00000   0.00008   0.00011   2.04011
   X23       -1.72960   0.00000   0.00000   0.00002   0.00002  -1.72959
   Y23        6.66451   0.00000   0.00000   0.00003   0.00005   6.66457
   Z23        1.81460   0.00000   0.00000  -0.00001  -0.00001   1.81458
   X24       -1.30126   0.00000   0.00000   0.00000   0.00001  -1.30126
   Y24        5.77227   0.00000   0.00000   0.00008   0.00011   5.77238
   Z24        3.84705   0.00000   0.00000   0.00001   0.00001   3.84706
         Item               Value     Threshold  Converged?
 Maximum Force            0.000047     0.000450     YES
 RMS     Force            0.000013     0.000300     YES
 Maximum Displacement     0.000901     0.001800     YES
 RMS     Displacement     0.000214     0.001200     YES
 Predicted change in Energy=-1.780436D-08
 Optimization completed.
    -- Stationary point found.
 Lowest energy point so far.  Saving SCF results.
 GradGradGradGradGradGradGradGradGradGradGradGradGradGradGradGradGradGrad

 Largest change from initial coordinates is atom    0       0.000 Angstoms.
 Leave Link  103 at Thu Feb  4 15:33:15 2021, MaxMem=    33554432 cpu:         0.0
 (Enter /apps/applications/gaussian/G09.D01/2/default/g09/l202.exe)
                          Input orientation:                          
 ---------------------------------------------------------------------
 Center     Atomic      Atomic             Coordinates (Angstroms)
 Number     Number       Type             X           Y           Z
 ---------------------------------------------------------------------
      1          8           0       -1.274827    1.455143    3.519786
      2          6           0       -1.559405    1.840473    2.429750
      3          6           0       -2.556211    1.406563    1.417137
      4          6           0       -3.959451    1.913841    1.777431
      5          6           0       -4.116768    3.419414    1.518599
      6          6           0       -5.348015    3.767610    0.679570
      7          1           0       -5.461373    4.869547    0.550162
      8          6           0       -5.313728    3.110539   -0.716949
      9          8           0       -4.316786    3.193123   -1.395971
     10          6           0       -6.561714    2.420698   -1.153476
     11          1           0       -7.863656    4.390611    1.983042
     12          1           0       -2.268938    1.778648    0.400003
     13          1           0       -2.553105    0.296857    1.345480
     14          1           0       -4.704878    1.336849    1.191264
     15          1           0       -4.192025    1.682543    2.837115
     16          1           0       -4.162924    3.966335    2.481336
     17          1           0       -3.219396    3.819902    0.985232
     18          1           0       -7.424737    3.108115   -1.139507
     19          1           0       -6.469542    2.004420   -2.165481
     20          1           0       -6.834018    1.606375   -0.463858
     21          8           0       -6.465863    3.265244    1.460529
     22          8           0       -7.597268    4.042527    1.079523
     23          8           0       -0.915267    3.526708    0.960243
     24          8           0       -0.688599    3.054554    2.035769
 ---------------------------------------------------------------------
                    Distance matrix (angstroms):
                    1          2          3          4          5
     1  O    0.000000
     2  C    1.190648   0.000000
     3  C    2.462811   1.485694   0.000000
     4  C    3.233173   2.488197   1.535000   0.000000
     5  C    3.992460   3.140598   2.548961   1.535738   0.000000
     6  C    5.477699   4.596798   3.729976   2.563175   1.530091
     7  H    6.164738   5.285215   4.602594   3.535273   2.201981
     8  C    6.083008   5.060605   3.880948   3.080273   2.554563
     9  O    6.036452   4.906012   3.768952   3.440164   2.930176
    10  C    7.121997   6.180555   4.866269   3.952074   3.757017
    11  H    7.375040   6.815155   6.115044   4.628119   3.898474
    12  H    3.290282   2.151077   1.120506   2.184816   2.712535
    13  H    2.775469   2.132096   1.112021   2.186099   3.496480
    14  H    4.147440   3.417819   2.161631   1.110033   2.188629
    15  H    3.004629   2.668628   2.183664   1.109288   2.181942
    16  H    3.965548   3.361586   3.204135   2.179361   1.108204
    17  H    3.974594   2.959787   2.539796   2.192790   1.118100
    18  H    7.890673   6.982022   5.756236   4.684338   4.255008
    19  H    7.720688   6.726996   5.339171   4.674967   4.594584
    20  H    6.840826   6.020740   4.677360   3.658011   3.821085
    21  O    5.870593   5.200259   4.329198   2.865103   2.354865
    22  O    7.254151   6.567187   5.698644   4.272247   3.562996
    23  O    3.312390   2.327607   2.719644   3.540649   3.251597
    24  O    2.259222   1.545159   2.566428   3.473678   3.486105
                    6          7          8          9         10
     6  C    0.000000
     7  H    1.115285   0.000000
     8  C    1.543756   2.172896   0.000000
     9  O    2.387748   2.812101   1.209043   0.000000
    10  C    2.578235   3.179622   1.491276   2.386450   0.000000
    11  H    2.900969   2.837867   3.928189   5.043014   3.925985
    12  H    3.676254   4.446105   3.506032   3.069193   4.610147
    13  H    4.505672   5.477230   4.448759   4.360560   5.179230
    14  H    2.565941   3.669230   2.675435   3.207827   3.181254
    15  H    3.215403   4.122911   3.991085   4.496269   4.699480
    16  H    2.165708   2.496236   3.505105   3.956645   4.621152
    17  H    2.151089   2.513464   2.790491   2.695783   4.207485
    18  H    2.838441   3.132479   2.152886   3.119673   1.103425
    19  H    3.530011   4.074319   2.158159   2.576726   1.098152
    20  H    2.861218   3.682483   2.153566   3.118182   1.101292
    21  O    1.453221   2.100371   2.468352   3.575378   2.748721
    22  O    2.301017   2.350794   3.051306   4.196560   2.947709
    23  O    4.448153   4.757989   4.725741   4.151308   6.129717
    24  O    4.904883   5.317951   5.382602   4.995977   6.713161
                   11         12         13         14         15
    11  H    0.000000
    12  H    6.374106   0.000000
    13  H    6.735522   1.780557   0.000000
    14  H    4.464331   2.599054   2.394889   0.000000
    15  H    4.641546   3.105964   2.613649   1.758223   0.000000
    16  H    3.758154   3.564422   4.164944   2.978623   2.311521
    17  H    4.784400   2.326495   3.603549   2.900803   2.990616
    18  H    3.404080   5.542548   6.149076   3.995937   5.319418
    19  H    4.984747   4.927246   5.530018   3.850640   5.506056
    20  H    3.847005   4.649289   4.828536   2.710223   4.228753
    21  O    1.869036   4.576993   4.912660   2.625315   3.093585
    22  O    1.004227   5.829065   6.288430   3.962209   4.500482
    23  O    7.076196   2.280791   3.641821   4.382922   4.202468
    24  O    7.298580   2.607899   3.399673   4.449067   3.846890
                   16         17         18         19         20
    16  H    0.000000
    17  H    1.774828   0.000000
    18  H    4.948381   4.765087   0.000000
    19  H    5.546396   4.877132   1.784142   0.000000
    20  H    4.623670   4.479404   1.749478   1.785162   0.000000
    21  O    2.614786   3.327627   2.775665   3.838963   2.567226
    22  O    3.710203   4.384543   2.413915   3.994458   2.983188
    23  O    3.613070   2.322843   6.852545   6.552670   6.383366
    24  O    3.619504   2.845052   7.447201   7.223059   6.790547
                   21         22         23         24
    21  O    0.000000
    22  O    1.424574   0.000000
    23  O    5.579226   6.702942   0.000000
    24  O    5.809653   7.044161   1.196271   0.000000
 Symmetry turned off by external request.
 Stoichiometry    C7H11O6(2)
 Framework group  C1[X(C7H11O6)]
 Deg. of freedom    66
 Full point group                 C1      NOp   1
 Rotational constants (GHZ):      1.4100444      0.3897517      0.3551469
 Leave Link  202 at Thu Feb  4 15:33:15 2021, MaxMem=    33554432 cpu:         0.0
 (Enter /apps/applications/gaussian/G09.D01/2/default/g09/l716.exe)
 Dipole        =-1.44133988D+00-1.15487851D-01 2.97684303D-01
 Polarizability= 8.42836323D+01 4.54176450D+00 6.50756235D+01
                -1.28294634D-01-1.50573776D+01 8.69782856D+01
 HyperPolar    =-4.22847796D+01-3.34383298D+00-4.20150955D+01
                -7.71190486D+01 3.13309645D+01 3.31009049D+01
                 4.14510992D+01-6.04208501D+01 6.76455805D-01
                -2.58683591D+01
 Full mass-weighted force constant matrix:
 Low frequencies ---  -32.7605   -2.4008   -0.8942   -0.7016    0.6994    2.5517
 Low frequencies ---    4.3131   23.9936   28.2422
 ******    1 imaginary frequencies (negative Signs) ****** 
 Diagonal vibrational polarizability:
      118.4761545     318.5188493      81.9979604
 Harmonic frequencies (cm**-1), IR intensities (KM/Mole), Raman scattering
 activities (A**4/AMU), depolarization ratios for plane and unpolarized
 incident light, reduced masses (AMU), force constants (mDyne/A),
 and normal coordinates:
                      1                      2                      3
                      A                      A                      A
 Frequencies --    -32.7602                23.9859                28.2380
 Red. masses --      5.6655                 8.4212                 3.5258
[...]
 ,0.00087120,-0.00000389,-0.00063133,-0.00020850,-0.00019494,0.00395361
 ,0.00249972,0.00155312,-0.03313788,0.00526274,0.00997569,-0.00635575,-
 0.00622518,-0.02725716,0.00012588,0.00009296,-0.00048982,-0.00203348,0
 .00126896,-0.00115216,0.00003459,-0.00018353,0.00028471,-0.00009424,-0
 .00049928,-0.00012408,-0.00016741,0.00004446,0.00005167,0.00004152,0.0
 0009120,0.00006607,0.00001685,0.00001497,0.00000264,0.00005281,-0.0000
 0623,-0.00006199,0.00060219,-0.00012552,0.00001936,0.04027580,-0.00012
 384,-0.00011337,-0.00003851,0.00041817,0.00023139,0.00021847,-0.000280
 68,-0.00108284,0.00009294,0.00457787,-0.03159139,-0.02059185,0.0037903
 2,-0.07466731,-0.07520486,-0.00186231,0.00406245,-0.00053291,0.0003240
 3,0.00044852,0.00062339,0.00086711,-0.00014571,-0.00018750,-0.00020666
 ,-0.00001839,0.00022308,0.00012351,0.00023552,0.00034399,0.00004266,0.
 00017734,0.00016329,-0.00001837,-0.00005337,0.00000690,0.00018646,-0.0
 0011705,-0.00003179,-0.00002287,-0.00217409,0.00029068,-0.00005389,-0.
 00064818,-0.00015682,-0.00740977,0.10120093,-0.00005618,0.00004093,-0.
 00061394,0.00025929,-0.00009262,0.00100735,-0.00032735,0.00046331,-0.0
 0009123,0.00124901,-0.00762122,0.00140264,0.00617937,-0.07718159,-0.16
 911091,-0.01425677,-0.00521415,-0.02499930,-0.00041617,0.00049891,-0.0
 0048608,-0.00128883,0.00007406,-0.00133792,0.00001931,0.00005076,0.000
 42533,0.00019933,-0.00005146,0.00004802,0.00005543,0.00009977,0.000290
 96,0.00009162,-0.00010700,-0.00006905,-0.00003943,-0.00006947,-0.00001
 812,-0.00006363,0.00028178,-0.00007071,-0.00011903,0.00074674,0.001059
 71,-0.00055307,0.09326472,0.20900667,-0.00034516,-0.00086341,0.0010387
 4,0.00139805,0.00219709,-0.00144339,-0.00098319,0.00077570,-0.00000460
 ,0.00165930,-0.00873837,0.00315718,-0.14137271,-0.04942433,0.06604066,
 -0.03822387,-0.00419222,0.00119294,-0.00071746,0.00069680,-0.00008194,
 -0.00031111,-0.00109689,-0.00285068,-0.00098929,0.00005794,0.00073659,
 0.00020032,0.00040900,0.00060296,-0.00015192,-0.00002423,0.00001117,0.
 00035771,0.00052298,0.00017622,-0.00011415,0.00012638,0.00000470,-0.00
 023843,-0.00002415,-0.00009527,-0.00004780,0.00005165,0.00015272,-0.00
 282072,0.00018527,0.00900841,0.18523439,-0.00025345,-0.00018070,-0.000
 25429,0.00113066,0.00007752,0.00110255,0.00048744,-0.00273759,0.000537
 24,-0.01879275,-0.02445532,0.01641048,-0.04822893,-0.05370718,0.028957
 76,-0.00046382,0.00386955,-0.00085388,0.00079614,0.00032258,0.00000135
 ,-0.00050004,0.00020622,-0.00085969,-0.00002091,-0.00053126,0.00025049
 ,0.00005325,0.00003517,0.00016560,0.00000066,0.00014260,0.00014284,0.0
 0072705,-0.00082967,-0.00050754,-0.00019478,-0.00007367,0.00001658,-0.
 00004641,-0.00142884,0.00038221,0.00002945,-0.00207603,0.00042932,0.00
 519069,0.00482673,-0.00465505,0.05893656,0.07735517,0.00007740,0.00012
 847,-0.00026656,-0.00060439,0.00039304,0.00022210,-0.00003721,0.000846
 54,-0.00021307,0.00439352,0.00982131,-0.00123127,0.06805893,0.02933574
 ,-0.07239453,-0.01030137,-0.00283585,0.00656986,-0.00025279,-0.0000730
 2,0.00036729,-0.00403735,-0.00042268,0.00074761,0.00233593,0.00039270,
 -0.00010221,0.00072729,0.00016826,-0.00028904,-0.00002286,-0.00009599,
 -0.00020575,0.00008535,-0.00027121,0.00042868,0.00003725,-0.00005607,0
 .00008241,0.00011060,0.00009505,0.00008341,0.00007171,0.00038201,-0.00
 008876,0.01771615,0.00195099,-0.01588522,-0.07591053,-0.04100073,0.083
 56108,0.00006541,-0.00004086,0.00016052,-0.00014225,0.00004845,-0.0002
 4502,0.00011749,-0.00011728,0.00011465,-0.00000978,0.00004710,0.000118
 18,-0.00022062,0.00026518,0.00070123,0.00092253,-0.00087682,-0.0007880
 3,-0.00004086,-0.00027842,-0.00009767,-0.04032057,0.00786652,-0.007408
 12,0.00031340,-0.00208234,-0.00004273,-0.14229168,0.09073163,0.0010760
 2,0.00009642,-0.00008772,-0.00012398,-0.00006301,0.00005249,-0.0000603
 0,-0.00000701,0.00004493,-0.00001429,-0.00000830,0.00003365,-0.0001025
 0,0.00002838,0.00001637,-0.00005425,0.00011445,-0.00008064,-0.00001912
 ,-0.00012545,-0.00003732,-0.00009307,0.18239113,-0.00004042,-0.0000317
 7,-0.00003251,0.00009224,0.00007560,0.00006338,-0.00005024,-0.00005672
 ,-0.00004933,-0.00007116,-0.00003073,-0.00007377,0.00013106,-0.0000435
 5,-0.00009490,-0.00041842,-0.00148638,0.00002887,-0.00030143,0.0000560
 3,-0.00050593,-0.00212134,0.01129277,-0.00018603,-0.00251720,-0.002660
 18,0.00096212,0.09014713,-0.10374972,-0.00349309,0.00007397,0.00007679
 ,0.00006888,0.00003397,0.00001018,0.00002943,0.00002257,0.00000946,0.0
 0001411,0.00008451,0.00003372,0.00009050,0.00000731,0.00001217,0.00002
 647,-0.00000422,0.00002575,0.00000631,0.00002381,0.00002961,0.00006593
 ,-0.10746492,0.12037757,0.00004635,0.00001819,0.00000809,-0.00011760,-
 0.00004502,-0.00004622,0.00013552,-0.00003332,-0.00005600,0.00000904,0
 .00006183,0.00002494,0.00035496,0.00007713,-0.00006494,-0.00119533,-0.
 00141692,-0.00036728,-0.00018188,-0.00018634,-0.00021822,-0.00794362,0
 .00548392,0.00504122,-0.00065557,-0.00107161,-0.00064101,-0.00128214,-
 0.00266277,-0.03422572,0.00031041,-0.00014671,-0.00001770,-0.00001814,
 0.00000184,0.00005792,-0.00001251,0.00001810,0.00002386,-0.00008623,0.
 00001975,0.00001484,-0.00003450,0.00000296,-0.00002272,-0.00003020,-0.
 00003581,-0.00001233,-0.00003940,-0.00005257,0.00010637,0.00389452,0.0
 0229320,0.03298236,0.00002766,-0.00000306,0.00007304,-0.00004846,-0.00
 001599,-0.00010121,-0.00000810,0.00005683,0.00013795,0.00007818,0.0000
 1632,0.00009965,-0.00003742,-0.00017528,-0.00022462,-0.00212154,-0.001
 60850,-0.00101171,0.00002674,-0.00003934,-0.00021877,-0.00264402,-0.01
 466882,-0.02574959,0.00000862,0.00088896,0.00116119,-0.03812866,0.0071
 2049,0.01744105,0.00001447,0.00001113,0.00001301,-0.00003548,-0.000015
 85,-0.00010552,-0.00001601,-0.00000256,-0.00004847,-0.00002317,-0.0000
 2674,-0.00012088,0.00001073,0.00000085,-0.00001557,-0.00004568,0.00002
 669,-0.00002888,0.00006460,-0.00001327,-0.00004506,-0.00292657,0.00953
 908,0.01466216,0.04312474,-0.00001828,-0.00005744,0.00003094,0.0000517
 4,0.00010967,-0.00002913,0.00000086,-0.00014586,-0.00001883,-0.0000437
 1,-0.00003810,-0.00002511,-0.00002438,-0.00012701,-0.00016384,-0.00100
 701,0.00001126,-0.00084853,-0.00002684,0.00003724,-0.00005195,-0.01018
 680,-0.00722829,-0.01851398,0.00153948,-0.00030902,0.00014819,0.006050
 44,-0.06194383,-0.06262363,0.00003412,0.00000371,-0.00003857,0.0000095
 4,0.00006377,0.00000281,0.00002485,0.00004769,0.00002999,0.00003321,0.
 00007549,0.00006722,0.00000427,0.00001437,0.00000659,-0.00003005,0.000
 00976,-0.00002765,-0.00000223,0.00002089,-0.00003205,0.00760210,-0.006
 19785,-0.01505706,-0.00140264,0.06970858,0.00008249,-0.00000712,0.0001
 0671,-0.00018402,-0.00001513,-0.00017993,0.00016924,-0.00008495,0.0000
 3980,0.00003838,0.00006855,0.00013518,0.00004611,0.00011396,0.00020744
 ,0.00032669,-0.00017719,-0.00032597,0.00001656,-0.00014378,0.00002346,
 -0.01587726,-0.01467866,-0.01366176,0.00254372,0.00069010,-0.00162354,
 0.01519719,-0.06323363,-0.19130954,0.00005052,-0.00006065,-0.00008939,
 -0.00007679,0.00004309,-0.00000849,-0.00002785,0.00004484,0.00000862,-
 0.00008874,0.00000642,-0.00011908,-0.00000357,0.00000846,-0.00005077,0
 .00000076,-0.00004877,-0.00003015,-0.00008312,-0.00004662,-0.00004539,
 0.00527544,-0.00617462,-0.00282873,-0.01228993,0.08344432,0.23013887,0
 .00008750,-0.00000704,0.00016262,-0.00018979,-0.00003170,-0.00025175,0
 .00014040,0.00000610,0.00013641,0.00008396,0.00003308,0.00023013,-0.00
 011778,0.00000701,0.00013719,-0.00013904,0.00101596,-0.00122508,0.0000
 2224,0.00000159,0.00041662,-0.01494548,-0.02767722,0.01042115,-0.00266
 263,0.00117519,-0.00117905,-0.04008843,-0.03371363,0.02789452,0.000050
 66,0.00007190,-0.00010583,-0.00009130,-0.00001150,-0.00005644,-0.00003
 981,0.00003456,-0.00004222,-0.00025370,0.00005664,-0.00043738,0.000034
 00,0.00002029,-0.00008743,-0.00000193,-0.00003520,-0.00004338,-0.00006
 642,-0.00003076,-0.00005654,0.00297126,0.01293957,-0.00810574,0.002834
 68,-0.00244359,0.00508638,0.05296518,-0.00002051,-0.00009801,0.0000724
 6,0.00005003,0.00018667,-0.00009956,0.00003452,-0.00028143,0.00000753,
 -0.00016441,-0.00008883,-0.00002358,0.00004236,0.00003367,0.00010303,-
 0.00029725,0.00014017,-0.00111319,-0.00009465,-0.00007924,0.00017345,-
 0.01914574,-0.01771234,0.00883799,0.00057575,0.00020792,-0.00135407,-0
 .03481667,-0.13442645,0.08540331,0.00017890,0.00000115,-0.00009553,0.0
 0000383,0.00009229,-0.00000373,0.00006112,0.00008719,0.00002799,0.0001
 2570,0.00024356,0.00007462,0.00003289,0.00005261,0.00001102,0.00001241
 ,-0.00003945,-0.00002703,-0.00008588,-0.00000495,-0.00000042,0.0045246
 5,-0.01726870,0.01252960,0.00014670,0.00596784,0.00015694,0.04907340,0
 .16338595,0.00005757,0.00006771,-0.00004282,-0.00014665,-0.00014861,0.
 00001779,0.00017447,0.00009025,-0.00013861,0.00015869,0.00011022,0.000
 04912,0.00038873,-0.00010941,-0.00044804,-0.00201019,-0.00036047,-0.00
 036096,-0.00000905,0.00006606,-0.00001937,0.00668846,0.00127588,0.0087
 5304,-0.00291272,-0.00029123,-0.00056500,0.02685319,0.08331323,-0.1064
 6133,0.00004011,-0.00018764,-0.00011308,-0.00000402,-0.00004368,0.0001
 2103,-0.00004285,0.00000030,0.00004457,-0.00040705,-0.00001657,-0.0000
 7349,-0.00009221,-0.00002869,-0.00005677,-0.00010489,-0.00000506,-0.00
 001728,0.00001321,-0.00003051,0.00013015,-0.00210991,0.00689433,0.0009
 3607,0.00572584,0.01319763,-0.02082404,-0.03294576,-0.10487460,0.11951
 395,0.00009170,0.00004473,-0.00000486,-0.00028137,-0.00010776,-0.00011
 254,0.00037181,-0.00019722,-0.00017231,-0.00161729,0.00131131,-0.00000
 123,-0.04770315,-0.00122018,-0.00497226,-0.11164479,-0.05497112,0.0829
 9122,-0.00964264,-0.01419260,0.00971732,-0.01290002,-0.00055789,0.0233
 6521,0.00053787,0.00172495,0.00230720,0.00178091,0.00055751,-0.0016758
 2,-0.02871480,0.02893150,0.00960341,0.00001159,-0.00004650,0.00019490,
 0.00001671,0.00003787,0.00005510,-0.00006284,0.00054206,0.00023415,-0.
 00000369,-0.00001808,-0.00008141,-0.00029731,-0.00062101,-0.00034807,-
 0.00144783,0.00029662,-0.00034438,-0.00025445,-0.00015149,0.00017513,-
 0.00011561,-0.00013901,-0.00018352,-0.00027272,-0.00004202,0.00051634,
 0.36601805,-0.00000264,0.00003476,-0.00007080,-0.00004270,0.00001169,0
 .00007705,-0.00003310,-0.00005997,-0.00012698,0.00061129,0.00009471,-0
 .00005569,0.00450174,0.00733628,-0.00614251,-0.04774225,-0.09397229,0.
 06809241,-0.02855147,-0.01916763,0.02133703,0.00093630,0.00431360,-0.0
 0305108,0.00077657,0.00015872,-0.00057489,0.00155861,0.00026329,-0.001
 79279,0.02131119,-0.02280871,-0.00585090,0.00002606,-0.00001283,0.0000
 7206,0.00000227,-0.00003292,0.00002044,-0.00019571,-0.00031585,-0.0000
 1680,-0.00001627,0.00010866,0.00008700,-0.00017425,-0.00027888,-0.0004
 4545,0.00162110,-0.00040171,0.00136681,-0.00027758,0.00010254,0.000514
 13,0.00015837,0.00006098,-0.00005962,-0.00047070,-0.00032213,0.0005166
 3,-0.06370715,0.22364870,-0.00000947,-0.00007169,0.00022742,0.00008738
 ,0.00009037,-0.00024995,-0.00020236,0.00002409,0.00034110,-0.00013090,
 -0.00022726,0.00062384,-0.00254684,-0.00277390,0.01059629,0.06770230,0
 .07396353,-0.10776394,0.01559061,0.01267203,-0.00799803,0.02622400,0.0
 0634690,-0.02807478,0.00200946,-0.00359111,-0.00556102,-0.00157829,-0.
 00237115,-0.00358968,0.03004061,-0.01491145,0.01373496,-0.00007706,0.0
 0008771,-0.00026107,-0.00000317,0.00001725,-0.00007818,0.00030406,-0.0
 0008343,-0.00022936,0.00012333,-0.00011858,-0.00007623,0.00014466,-0.0
 0021816,-0.00015778,-0.00160037,0.00011280,-0.00162712,0.00030199,-0.0
 0019776,-0.00007259,0.00062340,0.00039827,0.00026413,-0.00005211,-0.00
 000107,-0.00048056,-0.07448049,-0.13084458,0.20339496,-0.00016054,0.00
 012841,-0.00039675,0.00039788,-0.00021795,0.00065938,-0.00044568,0.000
 52393,-0.00004050,0.00046564,-0.00033674,-0.00009207,-0.00547466,-0.00
 203439,0.00463635,-0.06328118,0.00868571,0.00228692,0.00002201,-0.0011
 4522,0.00053732,-0.00005455,-0.00068701,-0.00257950,-0.00017301,0.0000
 8574,0.00072476,0.00120618,0.00130586,0.00155895,-0.03150785,0.0245503
 2,0.03983143,0.00009964,-0.00012540,-0.00007907,-0.00001794,-0.0001396
 1,-0.00003240,-0.00013794,-0.00018328,-0.00003726,-0.00008417,-0.00010
 638,0.00016312,0.00033905,0.00021869,0.00058637,-0.00053821,0.00052298
 ,-0.00119277,-0.00064486,0.00007270,0.00008320,-0.00005015,-0.00001062
 ,-0.00007276,-0.00036893,-0.00017683,0.00013147,-0.15392534,0.10970088
 ,-0.06247201,0.25443631,0.00013603,0.00006147,0.00013136,-0.00033531,-
 0.00019639,-0.00028531,0.00038720,0.00001932,0.00003509,0.00022325,0.0
 0003979,0.00025094,-0.00335089,-0.00021238,0.00017536,0.01291417,0.016
 40062,-0.01426616,0.00088611,-0.00176516,-0.00069120,0.00035037,0.0005
 6592,0.00194494,0.00052028,-0.00009657,-0.00073660,0.00018827,0.000200
 02,-0.00180511,0.02708621,-0.02601017,-0.06505559,-0.00006753,-0.00000
 747,0.00001705,-0.00003978,0.00004339,0.00001340,-0.00030009,0.0001255
 3,-0.00000699,-0.00012704,-0.00002075,-0.00013690,-0.00001636,-0.00019
 476,-0.00006357,-0.00040997,0.00000249,-0.00023922,0.00011809,-0.00054
 834,-0.00032619,-0.00000578,-0.00004768,0.00014445,-0.00003569,-0.0000
 1946,0.00052145,0.10249336,-0.09876571,0.06171595,-0.14069113,0.110361
 69,0.00005059,-0.00004902,0.00023503,-0.00013091,0.00008009,-0.0003634
 7,0.00013991,-0.00012320,0.00015454,0.00011316,0.00017511,0.00020506,0
 .00185225,0.00074090,-0.00047457,0.01124381,-0.02084838,0.00763869,-0.
 00137044,-0.00019847,0.00101791,0.00186361,-0.00012256,-0.00070190,0.0
 0048964,-0.00005124,-0.00103224,0.00124557,-0.00152153,-0.00116881,0.0
 1572427,-0.05423951,-0.21740840,-0.00006317,0.00004819,-0.00004038,-0.
 00000847,0.00003956,-0.00001936,-0.00015571,0.00007087,-0.00014087,0.0
 0007208,-0.00000259,-0.00013614,0.00008588,-0.00004468,-0.00026217,0.0
 0021415,-0.00010032,0.00035545,-0.00052452,0.00028730,-0.00062728,-0.0
 0000735,0.00011059,0.00014017,0.00005077,0.00020203,0.00003269,-0.0467
 7678,0.05696712,-0.07302701,0.01585402,0.01860240,0.28557070,-0.001029
 07,-0.00466364,0.00234124,0.01652863,0.00655032,0.01899883,0.00039200,
 -0.00012730,0.00113729,-0.00037742,0.00053467,0.00044552,-0.00305960,-
 0.00081760,0.00107168,0.00026370,-0.00014373,0.00001828,0.00006066,0.0
 0000155,0.00001273,0.00030683,0.00028174,0.00008663,-0.00025123,-0.000
 16403,-0.00010129,-0.00010528,-0.00019851,-0.00003678,0.00002240,0.000
 00440,-0.00003701,-0.00082126,0.00038218,-0.00204987,0.00071368,-0.000
 04010,0.00078616,0.00006822,-0.00007232,-0.00010701,-0.00007764,-0.000
 00713,0.00001399,0.00011598,0.00002592,-0.00014873,0.00109051,0.000534
 37,-0.00079276,0.00002360,0.00001361,0.00000075,-0.00001012,0.00003127
 ,0.00001478,-0.00000666,0.00005311,-0.00002787,-0.00000206,0.00000379,
 0.00003452,-0.00011530,-0.00002352,0.00003935,0.03516291,-0.00632198,-
 0.01125817,0.01095852,-0.00161323,-0.03670818,0.04718254,-0.00349224,-
 0.00244416,0.00099280,0.00025529,-0.00046662,-0.00015846,0.00079661,0.
 00071398,-0.00016674,-0.00017646,0.00022308,-0.00009787,-0.00006399,-0
 .00010124,-0.00000272,0.00002284,-0.00024998,0.00012599,0.00003349,0.0
 0025906,-0.00009255,-0.00008389,0.00016456,-0.00010305,0.00000478,-0.0
 0005833,-0.00003702,-0.00015985,-0.00071708,-0.00121608,0.00049445,0.0
 0069845,0.00042683,0.00010341,0.00007347,0.00009288,0.00011307,0.00004
 599,-0.00001002,-0.00013721,-0.00015846,-0.00000707,-0.00125654,-0.000
 56103,0.00024067,0.00002528,-0.00003854,0.00002201,0.00002713,-0.00003
 496,0.00003475,0.00005126,-0.00004947,0.00004100,0.00005042,0.00001497
 ,-0.00000874,-0.00002354,0.00010115,0.00001682,0.00076181,0.12051514,0
 .00446522,0.01242800,-0.01032726,0.03181908,0.06272555,-0.04171234,0.0
 0411386,0.00319588,0.00336437,0.00032731,0.00124163,0.00104899,-0.0005
 7065,-0.00070833,0.00018908,0.00024524,-0.00033077,0.00016251,0.000096
 28,0.00019970,-0.00001039,0.00041798,0.00030406,-0.00092067,-0.0005721
 5,-0.00033572,0.00053687,0.00007153,-0.00025376,0.00043080,-0.00004105
 ,0.00011847,0.00009867,0.00112578,0.00195094,-0.00333958,0.00043931,-0
 .00102571,0.00010573,-0.00005194,-0.00030740,-0.00032795,-0.00043761,-
 0.00008280,0.00010875,0.00015367,0.00029731,0.00006188,0.00147001,0.00
 045462,-0.00047021,-0.00004944,0.00006492,-0.00007767,-0.00001714,0.00
 006047,-0.00009590,-0.00009969,0.00007616,-0.00012130,-0.00019078,-0.0
 0004890,0.00011154,0.00016641,-0.00020690,-0.00003880,0.04934387,-0.17
 549442,0.34598135,0.01288998,-0.00775075,0.01912460,-0.08525924,-0.041
 08795,-0.03553338,-0.01349501,-0.02623392,-0.00279544,-0.00008861,-0.0
 0096396,-0.00054871,0.00054662,0.00060948,-0.00035626,-0.00014520,0.00
 023259,-0.00002967,-0.00007178,-0.00007859,0.00000485,-0.00022754,-0.0
 0035222,0.00025470,0.00028348,0.00027978,-0.00017393,-0.00000424,0.000
 24518,-0.00014827,0.00000394,-0.00004921,-0.00001686,-0.00087558,-0.00
 186135,0.00105967,-0.00312034,0.00006724,-0.00245688,0.00007434,0.0001
 5059,0.00015251,0.00022107,-0.00005762,-0.00010989,-0.00017440,-0.0000
 7091,0.00005872,-0.00151145,-0.00012291,0.00007732,0.00001165,-0.00004
 076,0.00003052,0.00002014,-0.00004695,0.00003910,0.00005521,-0.0000716
 2,0.00006511,0.00006374,0.00000175,-0.00003648,0.00001171,0.00010000,-
 0.00000443,-0.04888700,0.01058747,-0.09220336,0.13965658,-0.00008512,-
 0.02292389,0.04742063,-0.04368376,-0.03865199,-0.05164704,-0.01665086,
 -0.00936565,0.00090631,-0.00117784,-0.00103140,-0.00117647,0.00011355,
 -0.00015619,0.00001996,0.00007385,-0.00004600,0.00011946,-0.00000304,0
 .00004506,0.00000043,-0.00020116,-0.00004849,-0.00008811,0.00014878,-0
 .00002903,0.00003944,0.00013961,0.00003236,0.00006662,-0.00002128,0.00
 002344,0.00004693,-0.00102860,-0.00073882,-0.00036120,-0.00139550,-0.0
 0061181,-0.00052482,-0.00034991,0.00011316,0.00010366,0.00008646,-0.00
 017380,0.00001557,-0.00008388,0.00006598,0.00003711,0.00051555,0.00010
 208,-0.00016014,-0.00003252,0.00001071,-0.00000839,-0.00001455,-0.0000
 0073,-0.00002494,-0.00003045,-0.00000861,0.00000125,-0.00002144,-0.000
 00206,-0.00001790,0.00008939,-0.00004238,-0.00003310,-0.00292874,-0.06
 998438,0.09570242,0.06652316,0.14343511,0.00787990,0.03546813,-0.03252
 554,-0.03202761,-0.04891927,-0.00589631,-0.01399439,-0.01119479,0.0028
 2849,-0.00088230,-0.00208372,-0.00178907,0.00077415,0.00091620,0.00004
 166,-0.00021645,0.00048343,-0.00023281,-0.00011707,-0.00026517,0.00001
 098,-0.00005121,-0.00039507,0.00089212,0.00028383,0.00044816,-0.000561
 08,-0.00027193,0.00027806,-0.00048346,0.00005612,-0.00014928,-0.000156
 91,-0.00148160,-0.00230439,0.00298803,-0.00124737,0.00113608,-0.001157
 38,-0.00008009,0.00051034,0.00038617,0.00054067,0.00013366,-0.00035619
 ,-0.00022964,-0.00037887,-0.00014130,-0.00171031,-0.00060211,0.0001652
 6,0.00009021,-0.00008836,0.00008236,0.00004657,-0.00006678,0.00012888,
 0.00015266,-0.00008380,0.00012460,0.00019246,0.00002135,-0.00004299,-0
 .00023006,0.00027431,0.00008386,-0.07105371,0.11728108,-0.29476285,0.1
 1356275,-0.09045406,0.33038305\\0.00000014,-0.00000025,0.00000062,-0.0
 0000002,0.00000022,-0.00000037,0.00000031,-0.00000017,0.00000011,-0.00
 000036,-0.00000023,0.00000005,-0.00000008,0.00000011,-0.00000003,-0.00
 000095,-0.00000043,-0.00000002,-0.00000002,0.00000011,-0.00000012,0.00
 001104,0.00000679,0.00000261,0.00000336,0.00000041,-0.00000183,0.00003
 512,0.00001511,-0.00000345,-0.00000015,0.00000064,0.00000210,0.0000001
 3,0.00000004,-0.00000034,-0.00000004,-0.00000001,0.,-0.00000017,-0.000
 00012,-0.00000008,-0.00000003,0.00000007,0.00000012,-0.00000005,0.0000
 0004,-0.00000010,0.00000019,0.00000006,-0.00000005,-0.00004506,0.00004
 029,0.00000265,0.00001055,-0.00001438,-0.00004086,-0.00001417,-0.00004
 745,0.00004194,0.00000094,-0.00000095,0.00000021,-0.00000078,0.0000000
 3,-0.00000306,-0.00000006,0.00000008,-0.00000002,0.00000017,0.,-0.0000
 0005\\\@


 IF AT FIRST YOU DON'T SUCCEED, TRY LOOKING IN 
 THE WASTEBASKET FOR THE DIRECTIONS.
 Job cpu time:       0 days  0 hours  0 minutes  2.8 seconds.
 File lengths (MBytes):  RWF=     80 Int=      0 D2E=      0 Chk=      2 Scr=      1
 Normal termination of Gaussian 09 at Thu Feb  4 15:33:15 2021.
