24
Properties=species:S:1:pos:R:3 energy=-19714.422483808117 pbc="F F F"
O        3.03520411       0.31058377       2.13657622
C        3.21983839       0.06985960       0.98536791
C        2.52010044      -0.75878850      -0.02773864
C        1.01300640      -0.84061639       0.23043230
C        0.30256076       0.47401683      -0.10656196
C       -1.20893321       0.41975696       0.15743016
H       -1.49401290       1.01758536       1.05398732
C       -2.03999050       0.91256292      -1.05216458
O       -1.53225324       1.60613755      -1.90206228
C       -3.47546108       0.50752400      -1.06207922
H       -2.16284257      -1.50769501       2.08237477
H        2.73285021      -0.36824587      -1.05405519
H        2.96685169      -1.78039684      -0.02673325
H        0.58123912      -1.66526922      -0.37626619
H        0.82148707      -1.11503872       1.28915282
H        0.74039485       1.30825710       0.47857398
H        0.48287802       0.74383987      -1.17347972
H       -4.07161656       1.12519018      -0.37515304
H       -3.91937415       0.61179621      -2.06248504
H       -3.60839089      -0.53900403      -0.73375388
O       -1.53656099      -0.97641980       0.40059964
O       -2.59794271      -0.97581719       1.34971981
O        4.73416618       0.64088223      -0.68760679
O        4.49680157       0.77929900       0.47592483
