22
Properties=species:S:1:pos:R:3 energy=-15622.667030915853 pbc="F F F"
O        0.75324700       1.95506800       2.53504000
C        0.12499500       2.29091000       1.55596600
C        0.59341800       2.05162800       0.13972700
C        1.75302000       1.05636400       0.05192400
C        1.32197100      -0.39054800       0.32580100
C        0.33988800      -0.97983000      -0.66920900
H        0.30454300      -2.08252200      -0.61315400
C        0.48359000      -0.47135900      -2.09176100
O       -0.23214000       0.39878900      -2.53053600
C        1.55670800      -1.13475400      -2.90093600
H       -0.84293200       2.81165300       1.64455400
H       -0.25817500       1.70326300      -0.49131900
H        0.89258600       3.02322500      -0.30698700
H        2.23964100       1.13855200      -0.93823000
H        2.52639900       1.33869800       0.80126700
H        2.22121600      -1.03509300       0.39181800
H        0.84927200      -0.43946900       1.34020000
H        1.26157000      -2.14990200      -3.20277700
H        1.75718000      -0.57584400      -3.82884300
H        2.50445300      -1.22055300      -2.35365600
O       -1.42178600      -0.71953900       0.81850300
O       -1.10604200      -0.53248100      -0.30026400
