5
Properties=species:S:1:pos:R:3 energy=-562.6995759820322 pbc="F F F"
C        1.01248200      -0.03362300       0.06491700
C        0.35876600       1.09308600       0.17700500
O       -0.23419800       2.11508500       0.27867600
H        0.47936900      -0.97045300      -0.02828100
H        2.09436200      -0.04261600       0.06402300
5
Properties=species:S:1:pos:R:3 energy=-562.7095531204574 pbc="F F F"
C        1.01011593      -0.02810496       0.05087879
C        0.35791628       1.09508408       0.17185046
O       -0.23313579       2.11161537       0.29490527
H        0.48318929      -0.97089660      -0.02664657
H        2.09269528      -0.04621889       0.06535205
5
Properties=species:S:1:pos:R:3 energy=-562.7158386671395 pbc="F F F"
C        1.00732976      -0.02200821       0.03836673
C        0.35655533       1.09799217       0.16648047
O       -0.23270951       2.10935890       0.31008030
H        0.48972003      -0.97158487      -0.02502938
H        2.08988539      -0.05227898       0.06644188
5
Properties=species:S:1:pos:R:3 energy=-562.7186149947548 pbc="F F F"
C        1.00420892      -0.01549143       0.02748145
C        0.35474992       1.10168336       0.16100239
O       -0.23285423       2.10822209       0.32400468
H        0.49858533      -0.97248186      -0.02345053
H        2.08609107      -0.06045317       0.06730200
5
Properties=species:S:1:pos:R:3 energy=-562.7179279607577 pbc="F F F"
C        1.00083881      -0.00871327       0.01832358
C        0.35256685       1.10603075       0.15552358
O       -0.23350505       2.10811147       0.33648199
H        0.50940931      -0.97355160      -0.02193108
H        2.08147109      -0.07039836       0.06794192
5
Properties=species:S:1:pos:R:3 energy=-562.7138259274386 pbc="F F F"
C        0.99730486      -0.00183241       0.01099374
C        0.35007290       1.11090744       0.15015142
O       -0.23459704       2.10893353       0.34731582
H        0.52181608      -0.97475812      -0.02049214
H        2.07618421      -0.08177144       0.06837116
5
Properties=species:S:1:pos:R:3 energy=-562.7064692282361 pbc="F F F"
C        0.99369248       0.00499248       0.00559257
C        0.34733487       1.11618652       0.14499326
O       -0.23606530       2.11059480       0.35630974
H        0.53542977      -0.97606546      -0.01915478
H        2.07038918      -0.09422934       0.06859921
5
Properties=species:S:1:pos:R:3 energy=-562.6962019617516 pbc="F F F"
C        0.99008710       0.01160273       0.00222068
C        0.34441955       1.12174109       0.14015648
O       -0.23784491       2.11300178       0.36326733
H        0.54987449      -0.97743766      -0.01794009
H        2.06424477      -0.10742893       0.06863561
5
Properties=species:S:1:pos:R:3 energy=-562.6835807911137 pbc="F F F"
C        0.98657414       0.01783967       0.00097871
C        0.34139372       1.12744424       0.13574842
O       -0.23987094       2.11606098       0.36799218
H        0.56477435      -0.97883876      -0.01686915
H        2.05790973      -0.12102714       0.06848984
5
Properties=species:S:1:pos:R:3 energy=-562.6693594610969 pbc="F F F"
C        0.98323901       0.02354463       0.00196728
C        0.33832417       1.13316909       0.13187647
O       -0.24207850       2.11967892       0.37028787
H        0.57975349      -0.98023278      -0.01596305
H        2.05154283      -0.13468085       0.06817143
5
Properties=species:S:1:pos:R:3 energy=-562.6544323021288 pbc="F F F"
C        0.98016713       0.02855894       0.00528702
C        0.33527770       1.13878871       0.12864798
O       -0.24440265       2.12376210       0.36995798
H        0.59443601      -0.98158377      -0.01524287
H        2.04530282      -0.14804698       0.06768990
5
Properties=species:S:1:pos:R:3 energy=-562.6397443540391 pbc="F F F"
C        0.97744392       0.03272393       0.01103856
C        0.33232109       1.14417621       0.12617031
O       -0.24677849       2.12821703       0.36680609
H        0.60844603      -0.98285576      -0.01472970
H        2.03934846      -0.16078241       0.06705473
5
Properties=species:S:1:pos:R:3 energy=-562.6261789503111 pbc="F F F"
C        0.97515479       0.03588092       0.01932253
C        0.32952113       1.14920469       0.12455084
O       -0.24914110       2.13295024       0.36063578
H        0.62140768      -0.98401278      -0.01444462
H        2.03383851      -0.17254407       0.06627546
5
Properties=species:S:1:pos:R:3 energy=-562.6144347492412 pbc="F F F"
C        0.97338518       0.03787126       0.03023956
C        0.32694461       1.15374724       0.12389692
O       -0.25142557       2.13786822       0.35125064
H        0.63294506      -0.98501888      -0.01440872
H        2.02893173      -0.18298884       0.06536159
5
Properties=species:S:1:pos:R:3 energy=-562.6048088658231 pbc="F F F"
C        0.97220668       0.03856964       0.04379665
C        0.32466014       1.15767650       0.12428890
O       -0.25356643       2.14286668       0.33855295
H        0.64269325      -0.98584611      -0.01463183
H        2.02478736      -0.19178770       0.06433332
5
Properties=species:S:1:pos:R:3 energy=-562.5968975421372 pbc="F F F"
C        0.97161364       0.03803746       0.05947701
C        0.32274660       1.16086255       0.12565589
O       -0.25549517       2.14778083       0.32299729
H        0.65034856      -0.98651142      -0.01506089
H        2.02156737      -0.19869042       0.06327070
5
Properties=species:S:1:pos:R:3 energy=-562.5904722612374 pbc="F F F"
C        0.97157353       0.03640105       0.07658170
C        0.32128639       1.16317456       0.12787444
O       -0.25714220       2.15242486       0.30523025
H        0.65562863      -0.98704737      -0.01562095
H        2.01943465      -0.20347411       0.06227456
5
Properties=species:S:1:pos:R:3 energy=-562.5858228112354 pbc="F F F"
C        0.97205379       0.03378679       0.09441165
C        0.32036194       1.16448173       0.13082103
O       -0.25843794       2.15661294       0.28589861
H        0.65825109      -0.98748651      -0.01623704
H        2.01855212      -0.20591594       0.06144576
5
Properties=species:S:1:pos:R:3 energy=-562.5836740586174 pbc="F F F"
C        0.97302188       0.03032106       0.11226775
C        0.32005566       1.16465322       0.13437215
O       -0.25931281       2.16015922       0.26564915
H        0.65793360      -0.98786144      -0.01683420
H        2.01908268      -0.20579307       0.06088516
5
Properties=species:S:1:pos:R:3 energy=-562.5849703143875 pbc="F F F"
C        0.97444525       0.02613026       0.12945089
C        0.32044998       1.16355823       0.13840430
O       -0.25969723       2.16287787       0.24512864
H        0.65439378      -0.98820470      -0.01733746
H        2.02118923      -0.20288267       0.06069362
5
Properties=species:S:1:pos:R:3 energy=-562.590560140476 pbc="F F F"
C        0.97629099       0.02134105       0.14526514
C        0.32162573       1.16106836       0.14279715
O       -0.25952178       2.16458372       0.22498020
H        0.64735529      -0.98854773      -0.01767289
H        2.02503077      -0.19696641       0.06097039
5
Properties=species:S:1:pos:R:3 energy=-562.6000223451259 pbc="F F F"
C        0.97850571       0.01609695       0.15920313
C        0.32356935       1.15720054       0.14762139
O       -0.25872737       2.16513162       0.20562613
H        0.63690111      -0.98885260      -0.01782894
H        2.03053220      -0.18809749       0.06171830
5
Properties=species:S:1:pos:R:3 energy=-562.6113266205275 pbc="F F F"
C        0.98100426       0.01056759       0.17104984
C        0.32612085       1.15219694       0.15324375
O       -0.25727085       2.16443839       0.18714651
H        0.62367123      -0.98897399      -0.01789076
H        2.03725551      -0.17674993       0.06279065
5
Properties=species:S:1:pos:R:3 energy=-562.6225783022649 pbc="F F F"
C        0.98369871       0.00492488       0.18061540
C        0.32910770       1.14631914       0.16005647
O       -0.25511048       2.16242622       0.16959199
H        0.60835358      -0.98875730      -0.01795179
H        2.04473149      -0.16343395       0.06402792
5
Properties=species:S:1:pos:R:3 energy=-562.6323704167153 pbc="F F F"
C        0.98650118      -0.00065931       0.18770993
C        0.33235733       1.13982869       0.16845177
O       -0.25220450       2.15901730       0.15301322
H        0.59163607      -0.98804793      -0.01810550
H        2.05249092      -0.14865975       0.06527058
5
Properties=species:S:1:pos:R:3 energy=-562.6397578882467 pbc="F F F"
C        0.98932376      -0.00601307       0.19214356
C        0.33569719       1.13298716       0.17882185
O       -0.24851116       2.15413379       0.13746084
H        0.57420661      -0.98669131      -0.01844535
H        2.06006460      -0.13293758       0.06635910
5
Properties=species:S:1:pos:R:3 energy=-562.6440245851829 pbc="F F F"
C        0.99207854      -0.01096452       0.19372641
C        0.33895473       1.12605611       0.19155894
O       -0.24398869       2.14769788       0.12298549
H        0.55675311      -0.98453283      -0.01906478
H        2.06698330      -0.11677763       0.06713393
5
Properties=species:S:1:pos:R:3 energy=-562.644151719303 pbc="F F F"
C        0.99468180      -0.01535776       0.19235609
C        0.34196983       1.11928132       0.20699544
O       -0.23860583       2.13965329       0.10960527
H        0.53991829      -0.98143706      -0.02005720
H        2.07281691      -0.10066079       0.06744040
5
Properties=species:S:1:pos:R:3 energy=-562.6375958391696 pbc="F F F"
C        0.99708287      -0.01916378       0.18862493
C        0.34468112       1.11278332       0.22498862
O       -0.23241451       2.13011491       0.09707966
H        0.52398582      -0.97742054      -0.02151547
H        2.07744570      -0.08483491       0.06716226
5
Properties=species:S:1:pos:R:3 energy=-562.6211988042032 pbc="F F F"
C        0.99924690      -0.02241415       0.18345654
C        0.34707431       1.10662290       0.24516918
O       -0.22550640       2.11927923       0.08504487
H        0.50906817      -0.97257229      -0.02353220
H        2.08089802      -0.06943670       0.06620160
5
Properties=species:S:1:pos:R:3 energy=-562.5922735773806 pbc="F F F"
C        1.00113910      -0.02514076       0.17777662
C        0.34913540       1.10086050       0.26716644
O       -0.21797335       2.10734327       0.07313632
H        0.49527677      -0.96698180      -0.02620001
H        2.08320309      -0.05460220       0.06446064
5
Properties=species:S:1:pos:R:3 energy=-562.5489853466138 pbc="F F F"
C        1.00272469      -0.02737554       0.17251081
C        0.35085041       1.09555652       0.29060972
O       -0.20990727       2.09450401       0.06098943
H        0.48272302      -0.96073854      -0.02961153
H        2.08439014      -0.04046745       0.06184158
5
Properties=species:S:1:pos:R:3 energy=-562.4905125084002 pbc="F F F"
C        1.00396892      -0.02915040       0.16858479
C        0.35220535       1.09077141       0.31512832
O       -0.20140003       2.08095846       0.04823963
H        0.47151835      -0.95393198      -0.03385936
H        2.08448842      -0.02716849       0.05824662
5
Properties=species:S:1:pos:R:3 energy=-562.4170122407896 pbc="F F F"
C        1.00483705      -0.03049707       0.16692122
C        0.35318620       1.08656552       0.34035215
O       -0.19254323       2.06690300       0.03452349
H        0.46177356      -0.94665161      -0.03903551
H        2.08352741      -0.01484085       0.05357865
5
Properties=species:S:1:pos:R:3 energy=-562.3292916136859 pbc="F F F"
C        1.00530533      -0.03141751       0.16795403
C        0.35377904       1.08298987       0.36600867
O       -0.18338122       2.05243319       0.01966038
H        0.45350018      -0.93898684      -0.04513191
H        2.08157767      -0.00353970       0.04784882
5
Properties=species:S:1:pos:R:3 energy=-562.2278776925347 pbc="F F F"
C        1.00537292      -0.03185129       0.17109228
C        0.35397002       1.08007581       0.39202984
O       -0.17385934       2.03743313       0.00385311
H        0.44650150      -0.93102697      -0.05193063
H        2.07879591       0.00684833       0.04129541
5
Properties=species:S:1:pos:R:3 energy=-562.1126368993449 pbc="F F F"
C        1.00504187      -0.03173010       0.17561597
C        0.35374529       1.07785224       0.41837340
O       -0.16391044       2.02176031      -0.01264725
H        0.44055462      -0.92286129      -0.05918736
H        2.07534966       0.01645783       0.03418524
5
Properties=species:S:1:pos:R:3 energy=-561.9828987110666 pbc="F F F"
C        1.00431423      -0.03098564       0.18080513
C        0.35309102       1.07634807       0.44499706
O       -0.15346736       2.00527221      -0.02958963
H        0.43543665      -0.91457907      -0.06665774
H        2.07140646       0.02542342       0.02678518
5
Properties=species:S:1:pos:R:3 energy=-561.8375132836852 pbc="F F F"
C        1.00319205      -0.02954960       0.18593976
C        0.35199339       1.07559219       0.47185857
O       -0.14246297       1.98782633      -0.04672297
H        0.43092466      -0.90626960      -0.07409744
H        2.06713387       0.03387968       0.01936208
5
Properties=species:S:1:pos:R:3 energy=-561.674808064661 pbc="F F F"
C        1.00167738      -0.02735368       0.19029988
C        0.35043855       1.07561349       0.49891565
O       -0.13083011       1.96928014      -0.06379617
H        0.42679576      -0.89802216      -0.08126213
H        2.06269941       0.04196121       0.01218278
5
Properties=species:S:1:pos:R:3 energy=-561.4924699172135 pbc="F F F"
C        0.99977290      -0.02433505       0.19320935
C        0.34841412       1.07643824       0.52612660
O       -0.11850823       1.94950367      -0.08056838
H        0.42283934      -0.88992251      -0.08792400
H        2.05826287       0.04979464       0.00549643
5
Properties=species:S:1:pos:R:3 energy=-561.2878848977666 pbc="F F F"
C        0.99748861      -0.02049439       0.19450180
C        0.34592454       1.07806223       0.55345655
O       -0.10551345       1.92851260      -0.09691725
H        0.41898760      -0.88201530      -0.09404754
H        2.05389370       0.05741386      -0.00065356
5
Properties=species:S:1:pos:R:3 energy=-561.0583386698496 pbc="F F F"
C        0.99483926      -0.01587339       0.19433972
C        0.34298512       1.08046152       0.58087499
O       -0.09191137       1.90641660      -0.11279694
H        0.41526492      -0.87431870      -0.09972125
H        2.04960308       0.06479296      -0.00635653
5
Properties=species:S:1:pos:R:3 energy=-560.8009348977358 pbc="F F F"
C        0.99183964      -0.01051441       0.19289111
C        0.33961132       1.08361189       0.60835151
O       -0.07776838       1.88332692      -0.12816286
H        0.41169721      -0.86685042      -0.10503573
H        2.04540121       0.07190503      -0.01170403
5
Properties=species:S:1:pos:R:3 energy=-560.5127036511318 pbc="F F F"
C        0.98850458      -0.00445981       0.19032394
C        0.33581865       1.08748908       0.63585567
O       -0.06315090       1.85935478      -0.14297042
H        0.40831037      -0.85962819      -0.11008157
H        2.04129831       0.07872314      -0.01678761
5
Properties=species:S:1:pos:R:3 energy=-560.1907718413006 pbc="F F F"
C        0.98484887       0.00224804       0.18680620
C        0.33162257       1.09206887       0.66335706
O       -0.04812535       1.83461142      -0.15717506
H        0.40513033      -0.85266971      -0.11494936
H        2.03730458       0.08522038      -0.02169884
5
Properties=species:S:1:pos:R:3 energy=-559.8326882616503 pbc="F F F"
C        0.98088734       0.00956678       0.18250585
C        0.32703858       1.09732699       0.69082524
O       -0.03275810       1.80920806      -0.17073221
H        0.40218296      -0.84599269      -0.11972965
H        2.03343022       0.09136987      -0.02652922
5
Properties=species:S:1:pos:R:3 energy=-559.4369809418315 pbc="F F F"
C        0.97664030       0.01744682       0.17756625
C        0.32209038       1.10322547       0.71822545
O       -0.01710151       1.78323350      -0.18361788
H        0.39947551      -0.83959597      -0.12448856
H        2.02967633       0.09716918      -0.03134525
5
Properties=species:S:1:pos:R:3 energy=-559.0047578563895 pbc="F F F"
C        0.97214387       0.02581789       0.17206001
C        0.31682525       1.10968683       0.74551048
O       -0.00116747       1.75671208      -0.19586722
H        0.39696155      -0.83342411      -0.12922187
H        2.02601780       0.10268630      -0.03614139
5
Properties=species:S:1:pos:R:3 energy=-558.5483270961297 pbc="F F F"
C        0.96743702       0.03460599       0.16604708
C        0.31129472       1.11662658       0.77263089
O        0.01503934       1.72965664      -0.20752596
H        0.39458508      -0.82741201      -0.13391277
H        2.02242484       0.10800179      -0.04089924
5
Properties=species:S:1:pos:R:3 energy=-558.2878097812971 pbc="F F F"
C        0.96255870       0.04373714       0.15958742
C        0.30555029       1.12396018       0.79953725
O        0.03151427       1.70208000      -0.21863983
H        0.39229009      -0.82149453      -0.13854447
H        2.01886765       0.11319622      -0.04560037
5
Properties=species:S:1:pos:R:3 energy=-558.756748276437 pbc="F F F"
C        0.95754786       0.05313734       0.15274099
C        0.29964348       1.13160311       0.82618013
O        0.04825263       1.67399498      -0.22925455
H        0.39002058      -0.81560658      -0.14310018
H        2.01531646       0.11835014      -0.05022638
5
Properties=species:S:1:pos:R:3 energy=-558.9727296786681 pbc="F F F"
C        0.95244345       0.06273261       0.14556775
C        0.29362580       1.13947087       0.85251007
O        0.06524976       1.64541442      -0.23941586
H        0.38772053      -0.80968302      -0.14756310
H        2.01174146       0.12354412      -0.05475887
5
Properties=species:S:1:pos:R:3 energy=-559.1777593127483 pbc="F F F"
C        0.94728444       0.07244895       0.13812767
C        0.28754876       1.14747893       0.87847765
O        0.08250098       1.61635113      -0.24916948
H        0.38533395      -0.80365873      -0.15191642
H        2.00811287       0.12885873      -0.05917941
5
Properties=species:S:1:pos:R:3 energy=-559.3650740157857 pbc="F F F"
C        0.94210978       0.08221238       0.13048069
C        0.28146388       1.15554277       0.90403342
O        0.10000162       1.58681794      -0.25856113
H        0.38280482      -0.79746861      -0.15614337
H        2.00440089       0.13437452      -0.06346961
5
Properties=species:S:1:pos:R:3 energy=-559.5288812446553 pbc="F F F"
C        0.93695842       0.09194891       0.12268677
C        0.27542267       1.16357788       0.92912796
O        0.11774702       1.55682768      -0.26763656
H        0.38007713      -0.79104753      -0.16022713
H        2.00057575       0.14017205      -0.06761105
5
Properties=species:S:1:pos:R:3 energy=-559.6633447810913 pbc="F F F"
C        0.93186932       0.10158455       0.11480589
C        0.26947664       1.17149974       0.95371182
O        0.13573250       1.52639317      -0.27644147
H        0.37709489      -0.78433036      -0.16415092
H        1.99660765       0.14633191      -0.07158531
5
Properties=species:S:1:pos:R:3 energy=-559.7621656171049 pbc="F F F"
C        0.92688143       0.11104530       0.10689799
C        0.26367731       1.17922383       0.97773556
O        0.15395339       1.49552725      -0.28502161
H        0.37380208      -0.77725200      -0.16789793
H        1.99246679       0.15293463      -0.07537400
5
Properties=species:S:1:pos:R:3 energy=-559.8183802011172 pbc="F F F"
C        0.92203371       0.12025718       0.09902303
C        0.25807618       1.18666563       1.00114975
O        0.17240502       1.46424273      -0.29342270
H        0.37014270      -0.76974733      -0.17145138
H        1.98812339       0.16006079      -0.07895870
5
Properties=species:S:1:pos:R:3 energy=-559.8242364357973 pbc="F F F"
C        0.91736512       0.12914620       0.09124097
C        0.25272477       1.19374062       1.02390494
O        0.19108271       1.43255244      -0.30169046
H        0.36606073      -0.76175122      -0.17479446
H        1.98354767       0.16779096      -0.08232100
