9
Properties=species:S:1:pos:R:3 energy=-725.1156202457802 pbc="F F F"
C       -1.03556226      -0.23152203      -0.96642081
C        0.08815993       0.14767112      -0.19278146
H       -1.98756878       0.07064802      -0.49383241
H       -1.07169832      -1.32192291      -1.14158802
H       -1.00269759       0.25338056      -1.96242001
C        1.11580498       0.48448567       0.53611875
H        1.93534121       1.14737301       0.26989069
O        1.33732999       0.03037397       1.82543957
H        0.62089084      -0.58048740       2.12559370
9
Properties=species:S:1:pos:R:3 energy=-725.11561856562 pbc="F F F"
C       -1.03556537      -0.23152783      -0.96641273
C        0.08816616       0.14768223      -0.19279653
H       -1.98756912       0.07064560      -0.49382378
H       -1.07169720      -1.32192753      -1.14158042
H       -1.00268684       0.25338169      -1.96240726
C        1.11580694       0.48448959       0.53611311
H        1.93534742       1.14737527       0.26989462
O        1.33732069       0.03037066       1.82543352
H        0.62087732      -0.58048967       2.12557946
9
Properties=species:S:1:pos:R:3 energy=-725.1156168735462 pbc="F F F"
C       -1.03556849      -0.23153365      -0.96640463
C        0.08817239       0.14769335      -0.19281163
H       -1.98756947       0.07064318      -0.49381515
H       -1.07169610      -1.32193217      -1.14157282
H       -1.00267602       0.25338285      -1.96239444
C        1.11580890       0.48449351       0.53610746
H        1.93535364       1.14737754       0.26989854
O        1.33731137       0.03036735       1.82542746
H        0.62086379      -0.58049194       2.12556521
9
Properties=species:S:1:pos:R:3 energy=-725.1156151694397 pbc="F F F"
C       -1.03557163      -0.23153950      -0.96639650
C        0.08817862       0.14770448      -0.19282675
H       -1.98756984       0.07064075      -0.49380651
H       -1.07169501      -1.32193682      -1.14156521
H       -1.00266512       0.25338403      -1.96238157
C        1.11581086       0.48449743       0.53610178
H        1.93535986       1.14737981       0.26990245
O        1.33730203       0.03036404       1.82542139
H        0.62085024      -0.58049421       2.12555092
9
Properties=species:S:1:pos:R:3 energy=-725.1156134532384 pbc="F F F"
C       -1.03557480      -0.23154538      -0.96638834
C        0.08818484       0.14771562      -0.19284189
H       -1.98757023       0.07063832      -0.49379787
H       -1.07169392      -1.32194149      -1.14155761
H       -1.00265415       0.25338523      -1.96236864
C        1.11581281       0.48450136       0.53609609
H        1.93536608       1.14738208       0.26990635
O        1.33729269       0.03036073       1.82541529
H        0.62083667      -0.58049648       2.12553662
9
Properties=species:S:1:pos:R:3 energy=-725.1156117248229 pbc="F F F"
C       -1.03557797      -0.23155128      -0.96638015
C        0.08819107       0.14772678      -0.19285706
H       -1.98757064       0.07063588      -0.49378922
H       -1.07169285      -1.32194617      -1.14155001
H       -1.00264310       0.25338646      -1.96235566
C        1.11581477       0.48450530       0.53609039
H        1.93537230       1.14738436       0.26991025
O        1.33728333       0.03035742       1.82540918
H        0.62082309      -0.58049875       2.12552229
9
Properties=species:S:1:pos:R:3 energy=-725.115609984106 pbc="F F F"
C       -1.03558117      -0.23155720      -0.96637194
C        0.08819731       0.14773794      -0.19287226
H       -1.98757106       0.07063343      -0.49378057
H       -1.07169179      -1.32195087      -1.14154240
H       -1.00263196       0.25338771      -1.96234262
C        1.11581672       0.48450925       0.53608466
H        1.93537852       1.14738665       0.26991414
O        1.33727396       0.03035410       1.82540305
H        0.62080949      -0.58050101       2.12550793
9
Properties=species:S:1:pos:R:3 energy=-725.1156082309839 pbc="F F F"
C       -1.03558439      -0.23156315      -0.96636369
C        0.08820354       0.14774912      -0.19288748
H       -1.98757150       0.07063098      -0.49377191
H       -1.07169074      -1.32195558      -1.14153479
H       -1.00262076       0.25338899      -1.96232952
C        1.11581866       0.48451320       0.53607892
H        1.93538475       1.14738893       0.26991802
O        1.33726457       0.03035079       1.82539690
H        0.62079587      -0.58050328       2.12549355
9
Properties=species:S:1:pos:R:3 energy=-725.1156064653752 pbc="F F F"
C       -1.03558762      -0.23156913      -0.96635542
C        0.08820977       0.14776031      -0.19290273
H       -1.98757195       0.07062852      -0.49376324
H       -1.07168971      -1.32196031      -1.14152719
H       -1.00260947       0.25339029      -1.96231636
C        1.11582061       0.48451716       0.53607316
H        1.93539097       1.14739122       0.26992189
O        1.33725517       0.03034748       1.82539074
H        0.62078223      -0.58050555       2.12547914
9
Properties=species:S:1:pos:R:3 energy=-725.1156046871613 pbc="F F F"
C       -1.03559088      -0.23157513      -0.96634712
C        0.08821600       0.14777152      -0.19291800
H       -1.98757243       0.07062606      -0.49375457
H       -1.07168868      -1.32196506      -1.14151958
H       -1.00259810       0.25339162      -1.96230314
C        1.11582255       0.48452112       0.53606739
H        1.93539719       1.14739352       0.26992575
O        1.33724576       0.03034417       1.82538455
H        0.62076858      -0.58050781       2.12546471
9
Properties=species:S:1:pos:R:3 energy=-725.1156028962505 pbc="F F F"
C       -1.03559415      -0.23158115      -0.96633880
C        0.08822224       0.14778273      -0.19293330
H       -1.98757292       0.07062359      -0.49374590
H       -1.07168766      -1.32196982      -1.14151197
H       -1.00258666       0.25339297      -1.96228986
C        1.11582449       0.48452509       0.53606160
H        1.93540342       1.14739582       0.26992961
O        1.33723634       0.03034085       1.82537835
H        0.62075491      -0.58051008       2.12545026
9
Properties=species:S:1:pos:R:3 energy=-725.1156010925387 pbc="F F F"
C       -1.03559744      -0.23158720      -0.96633044
C        0.08822847       0.14779396      -0.19294862
H       -1.98757343       0.07062111      -0.49373721
H       -1.07168666      -1.32197460      -1.14150436
H       -1.00257513       0.25339435      -1.96227653
C        1.11582642       0.48452906       0.53605579
H        1.93540965       1.14739813       0.26993345
O        1.33722690       0.03033754       1.82537214
H        0.62074123      -0.58051234       2.12543578
9
Properties=species:S:1:pos:R:3 energy=-725.115599275943 pbc="F F F"
C       -1.03560075      -0.23159328      -0.96632206
C        0.08823471       0.14780520      -0.19296396
H       -1.98757396       0.07061863      -0.49372853
H       -1.07168567      -1.32197939      -1.14149675
H       -1.00256353       0.25339575      -1.96226313
C        1.11582836       0.48453304       0.53604996
H        1.93541587       1.14740044       0.26993729
O        1.33721745       0.03033423       1.82536590
H        0.62072752      -0.58051461       2.12542127
9
Properties=species:S:1:pos:R:3 energy=-725.1155974463533 pbc="F F F"
C       -1.03560408      -0.23159938      -0.96631364
C        0.08824094       0.14781645      -0.19297934
H       -1.98757451       0.07061614      -0.49371983
H       -1.07168469      -1.32198420      -1.14148913
H       -1.00255184       0.25339717      -1.96224968
C        1.11583028       0.48453703       0.53604411
H        1.93542210       1.14740275       0.26994112
O        1.33720799       0.03033091       1.82535965
H        0.62071380      -0.58051687       2.12540674
9
Properties=species:S:1:pos:R:3 energy=-725.1155956036579 pbc="F F F"
C       -1.03560743      -0.23160551      -0.96630520
C        0.08824718       0.14782772      -0.19299474
H       -1.98757508       0.07061364      -0.49371114
H       -1.07168372      -1.32198903      -1.14148152
H       -1.00254008       0.25339862      -1.96223616
C        1.11583221       0.48454103       0.53603825
H        1.93542833       1.14740507       0.26994494
O        1.33719851       0.03032760       1.82535338
H        0.62070007      -0.58051914       2.12539219
9
Properties=species:S:1:pos:R:3 energy=-725.1155937477487 pbc="F F F"
C       -1.03561080      -0.23161167      -0.96629673
C        0.08825341       0.14783900      -0.19301016
H       -1.98757566       0.07061114      -0.49370243
H       -1.07168276      -1.32199387      -1.14147391
H       -1.00252823       0.25340010      -1.96222259
C        1.11583414       0.48454503       0.53603237
H        1.93543456       1.14740739       0.26994876
O        1.33718902       0.03032428       1.82534709
H        0.62068631      -0.58052140       2.12537761
9
Properties=species:S:1:pos:R:3 energy=-725.1155918785524 pbc="F F F"
C       -1.03561418      -0.23161785      -0.96628823
C        0.08825965       0.14785029      -0.19302561
H       -1.98757626       0.07060863      -0.49369373
H       -1.07168182      -1.32199873      -1.14146629
H       -1.00251630       0.25340160      -1.96220895
C        1.11583606       0.48454903       0.53602647
H        1.93544079       1.14740972       0.26995256
O        1.33717952       0.03032097       1.82534078
H        0.62067254      -0.58052366       2.12536300
9
Properties=species:S:1:pos:R:3 energy=-725.1155899959182 pbc="F F F"
C       -1.03561759      -0.23162405      -0.96627970
C        0.08826589       0.14786159      -0.19304109
H       -1.98757688       0.07060612      -0.49368501
H       -1.07168088      -1.32200361      -1.14145868
H       -1.00250429       0.25340313      -1.96219526
C        1.11583797       0.48455305       0.53602056
H        1.93544702       1.14741205       0.26995636
O        1.33717000       0.03031765       1.82533445
H        0.62065876      -0.58052592       2.12534837
9
Properties=species:S:1:pos:R:3 energy=-725.1155880997981 pbc="F F F"
C       -1.03562101      -0.23163029      -0.96627114
C        0.08827213       0.14787290      -0.19305659
H       -1.98757752       0.07060360      -0.49367629
H       -1.07167996      -1.32200850      -1.14145106
H       -1.00249220       0.25340468      -1.96218150
C        1.11583989       0.48455707       0.53601463
H        1.93545325       1.14741439       0.26996014
O        1.33716047       0.03031433       1.82532811
H        0.62064495      -0.58052818       2.12533371
9
Properties=species:S:1:pos:R:3 energy=-725.1155861900289 pbc="F F F"
C       -1.03562446      -0.23163655      -0.96626255
C        0.08827837       0.14788423      -0.19307212
H       -1.98757818       0.07060107      -0.49366757
H       -1.07167905      -1.32201341      -1.14144345
H       -1.00248002       0.25340626      -1.96216768
C        1.11584180       0.48456109       0.53600867
H        1.93545948       1.14741673       0.26996392
O        1.33715093       0.03031102       1.82532175
H        0.62063113      -0.58053045       2.12531903
9
Properties=species:S:1:pos:R:3 energy=-725.1155842665289 pbc="F F F"
C       -1.03562792      -0.23164283      -0.96625394
C        0.08828461       0.14789557      -0.19308767
H       -1.98757885       0.07059854      -0.49365884
H       -1.07167815      -1.32201833      -1.14143583
H       -1.00246777       0.25340787      -1.96215381
C        1.11584371       0.48456512       0.53600271
H        1.93546572       1.14741908       0.26996769
O        1.33714137       0.03030770       1.82531537
H        0.62061729      -0.58053270       2.12530432
9
Properties=species:S:1:pos:R:3 energy=-725.1155823292094 pbc="F F F"
C       -1.03563140      -0.23164915      -0.96624529
C        0.08829085       0.14790692      -0.19310325
H       -1.98757955       0.07059600      -0.49365010
H       -1.07167727      -1.32202328      -1.14142821
H       -1.00245543       0.25340950      -1.96213987
C        1.11584562       0.48456916       0.53599672
H        1.93547195       1.14742143       0.26997145
O        1.33713180       0.03030438       1.82530897
H        0.62060343      -0.58053496       2.12528958
9
Properties=species:S:1:pos:R:3 energy=-725.1155803779242 pbc="F F F"
C       -1.03563491      -0.23165549      -0.96623661
C        0.08829709       0.14791828      -0.19311886
H       -1.98758026       0.07059345      -0.49364136
H       -1.07167639      -1.32202823      -1.14142059
H       -1.00244300       0.25341116      -1.96212586
C        1.11584752       0.48457321       0.53599071
H        1.93547818       1.14742378       0.26997520
O        1.33712222       0.03030107       1.82530255
H        0.62058956      -0.58053722       2.12527482
9
Properties=species:S:1:pos:R:3 energy=-725.115578412576 pbc="F F F"
C       -1.03563843      -0.23166185      -0.96622790
C        0.08830333       0.14792966      -0.19313449
H       -1.98758100       0.07059090      -0.49363262
H       -1.07167553      -1.32203321      -1.14141298
H       -1.00243050       0.25341284      -1.96211180
C        1.11584942       0.48457726       0.53598469
H        1.93548442       1.14742614       0.26997895
O        1.33711262       0.03029775       1.82529612
H        0.62057567      -0.58053948       2.12526003
9
Properties=species:S:1:pos:R:3 energy=-725.1155764330636 pbc="F F F"
C       -1.03564197      -0.23166825      -0.96621917
C        0.08830957       0.14794105      -0.19315015
H       -1.98758175       0.07058834      -0.49362386
H       -1.07167468      -1.32203820      -1.14140536
H       -1.00241790       0.25341455      -1.96209767
C        1.11585132       0.48458131       0.53597865
H        1.93549065       1.14742850       0.26998268
O        1.33710301       0.03029443       1.82528966
H        0.62056176      -0.58054174       2.12524522
9
Properties=species:S:1:pos:R:3 energy=-725.1155744392711 pbc="F F F"
C       -1.03564554      -0.23167467      -0.96621040
C        0.08831581       0.14795245      -0.19316583
H       -1.98758252       0.07058577      -0.49361511
H       -1.07167385      -1.32204321      -1.14139774
H       -1.00240523       0.25341629      -1.96208348
C        1.11585321       0.48458538       0.53597259
H        1.93549689       1.14743087       0.26998640
O        1.33709339       0.03029111       1.82528319
H        0.62054783      -0.58054399       2.12523038
9
Properties=species:S:1:pos:R:3 energy=-725.1155724310664 pbc="F F F"
C       -1.03564912      -0.23168112      -0.96620160
C        0.08832205       0.14796387      -0.19318155
H       -1.98758331       0.07058320      -0.49360635
H       -1.07167302      -1.32204824      -1.14139012
H       -1.00239247       0.25341805      -1.96206923
C        1.11585510       0.48458945       0.53596651
H        1.93550313       1.14743325       0.26999012
O        1.33708375       0.03028780       1.82527670
H        0.62053389      -0.58054625       2.12521552
9
Properties=species:S:1:pos:R:3 energy=-725.115570408366 pbc="F F F"
C       -1.03565272      -0.23168759      -0.96619278
C        0.08832829       0.14797529      -0.19319728
H       -1.98758412       0.07058062      -0.49359758
H       -1.07167221      -1.32205328      -1.14138250
H       -1.00237962       0.25341984      -1.96205492
C        1.11585699       0.48459352       0.53596042
H        1.93550936       1.14743562       0.26999382
O        1.33707410       0.03028448       1.82527019
H        0.62051993      -0.58054851       2.12520063
9
Properties=species:S:1:pos:R:3 energy=-725.1155683710416 pbc="F F F"
C       -1.03565635      -0.23169410      -0.96618392
C        0.08833454       0.14798673      -0.19321305
H       -1.98758495       0.07057804      -0.49358881
H       -1.07167141      -1.32205834      -1.14137488
H       -1.00236669       0.25342166      -1.96204054
C        1.11585887       0.48459761       0.53595430
H        1.93551560       1.14743801       0.26999752
O        1.33706443       0.03028116       1.82526366
H        0.62050595      -0.58055076       2.12518571
9
Properties=species:S:1:pos:R:3 energy=-725.115566318979 pbc="F F F"
C       -1.03565999      -0.23170063      -0.96617503
C        0.08834078       0.14799818      -0.19322884
H       -1.98758580       0.07057545      -0.49358003
H       -1.07167062      -1.32206342      -1.14136726
H       -1.00235367       0.25342350      -1.96202610
C        1.11586075       0.48460170       0.53594817
H        1.93552184       1.14744039       0.27000121
O        1.33705475       0.03027784       1.82525711
H        0.62049196      -0.58055301       2.12517077
9
Properties=species:S:1:pos:R:3 energy=-725.115564252056 pbc="F F F"
C       -1.03566365      -0.23170719      -0.96616611
C        0.08834702       0.14800965      -0.19324466
H       -1.98758667       0.07057285      -0.49357125
H       -1.07166985      -1.32206851      -1.14135964
H       -1.00234056       0.25342537      -1.96201159
C        1.11586263       0.48460579       0.53594202
H        1.93552808       1.14744279       0.27000488
O        1.33704506       0.03027452       1.82525054
H        0.62047794      -0.58055527       2.12515580
9
Properties=species:S:1:pos:R:3 energy=-725.1155621701681 pbc="F F F"
C       -1.03566734      -0.23171377      -0.96615716
C        0.08835326       0.14802112      -0.19326050
H       -1.98758756       0.07057024      -0.49356246
H       -1.07166909      -1.32207363      -1.14135202
H       -1.00232737       0.25342727      -1.96199702
C        1.11586450       0.48460989       0.53593585
H        1.93553432       1.14744518       0.27000855
O        1.33703535       0.03027120       1.82524395
H        0.62046391      -0.58055752       2.12514080
9
Properties=species:S:1:pos:R:3 energy=-725.1155600731719 pbc="F F F"
C       -1.03567104      -0.23172039      -0.96614818
C        0.08835951       0.14803261      -0.19327638
H       -1.98758846       0.07056763      -0.49355366
H       -1.07166834      -1.32207876      -1.14134440
H       -1.00231409       0.25342920      -1.96198239
C        1.11586638       0.48461400       0.53592966
H        1.93554056       1.14744758       0.27001221
O        1.33702563       0.03026788       1.82523735
H        0.62044986      -0.58055977       2.12512578
9
Properties=species:S:1:pos:R:3 energy=-725.1155579609745 pbc="F F F"
C       -1.03567477      -0.23172703      -0.96613917
C        0.08836575       0.14804412      -0.19329227
H       -1.98758939       0.07056501      -0.49354487
H       -1.07166760      -1.32208390      -1.14133677
H       -1.00230073       0.25343115      -1.96196769
C        1.11586824       0.48461812       0.53592345
H        1.93554680       1.14744999       0.27001586
O        1.33701590       0.03026456       1.82523072
H        0.62043580      -0.58056202       2.12511073
9
Properties=species:S:1:pos:R:3 energy=-725.1155558334405 pbc="F F F"
C       -1.03567851      -0.23173370      -0.96613012
C        0.08837199       0.14805563      -0.19330820
H       -1.98759034       0.07056239      -0.49353606
H       -1.07166688      -1.32208907      -1.14132915
H       -1.00228727       0.25343313      -1.96195292
C        1.11587011       0.48462224       0.53591723
H        1.93555304       1.14745240       0.27001950
O        1.33700615       0.03026124       1.82522408
H        0.62042171      -0.58056427       2.12509565
9
Properties=species:S:1:pos:R:3 energy=-725.1155536904637 pbc="F F F"
C       -1.03568228      -0.23174040      -0.96612105
C        0.08837824       0.14806716      -0.19332415
H       -1.98759131       0.07055976      -0.49352725
H       -1.07166617      -1.32209425      -1.14132153
H       -1.00227373       0.25343514      -1.96193809
C        1.11587197       0.48462637       0.53591098
H        1.93555928       1.14745482       0.27002313
O        1.33699639       0.03025793       1.82521742
H        0.62040761      -0.58056652       2.12508055
9
Properties=species:S:1:pos:R:3 energy=-725.1155515318982 pbc="F F F"
C       -1.03568607      -0.23174713      -0.96611194
C        0.08838448       0.14807870      -0.19334013
H       -1.98759230       0.07055712      -0.49351844
H       -1.07166547      -1.32209945      -1.14131391
H       -1.00226010       0.25343717      -1.96192320
C        1.11587383       0.48463051       0.53590472
H        1.93556552       1.14745724       0.27002675
O        1.33698662       0.03025461       1.82521073
H        0.62039349      -0.58056877       2.12506542
9
Properties=species:S:1:pos:R:3 energy=-725.1155493576441 pbc="F F F"
C       -1.03568988      -0.23175388      -0.96610280
C        0.08839072       0.14809025      -0.19335614
H       -1.98759331       0.07055448      -0.49350962
H       -1.07166479      -1.32210467      -1.14130629
H       -1.00224638       0.25343924      -1.96190824
C        1.11587568       0.48463465       0.53589844
H        1.93557176       1.14745966       0.27003036
O        1.33697683       0.03025129       1.82520403
H        0.62037936      -0.58057101       2.12505026
9
Properties=species:S:1:pos:R:3 energy=-725.1155471675766 pbc="F F F"
C       -1.03569371      -0.23176067      -0.96609363
C        0.08839697       0.14810182      -0.19337217
H       -1.98759434       0.07055183      -0.49350080
H       -1.07166411      -1.32210990      -1.14129867
H       -1.00223257       0.25344133      -1.96189321
C        1.11587753       0.48463880       0.53589213
H        1.93557800       1.14746209       0.27003396
O        1.33696702       0.03024797       1.82519731
H        0.62036520      -0.58057326       2.12503508
9
Properties=species:S:1:pos:R:3 energy=-725.1155449615474 pbc="F F F"
C       -1.03569756      -0.23176748      -0.96608443
C        0.08840321       0.14811340      -0.19338824
H       -1.98759539       0.07054917      -0.49349197
H       -1.07166346      -1.32211516      -1.14129105
H       -1.00221867       0.25344345      -1.96187812
C        1.11587938       0.48464295       0.53588581
H        1.93558424       1.14746453       0.27003755
O        1.33695721       0.03024465       1.82519057
H        0.62035103      -0.58057551       2.12501987
9
Properties=species:S:1:pos:R:3 energy=-725.1155427394342 pbc="F F F"
C       -1.03570143      -0.23177432      -0.96607520
C        0.08840946       0.14812499      -0.19340432
H       -1.98759646       0.07054650      -0.49348313
H       -1.07166281      -1.32212043      -1.14128343
H       -1.00220467       0.25344560      -1.96186296
C        1.11588122       0.48464711       0.53587947
H        1.93559049       1.14746697       0.27004112
O        1.33694737       0.03024133       1.82518381
H        0.62033684      -0.58057775       2.12500463
9
Properties=species:S:1:pos:R:3 energy=-725.1155405011298 pbc="F F F"
C       -1.03570533      -0.23178119      -0.96606593
C        0.08841570       0.14813659      -0.19342044
H       -1.98759755       0.07054383      -0.49347429
H       -1.07166218      -1.32212572      -1.14127580
H       -1.00219059       0.25344778      -1.96184773
C        1.11588306       0.48465128       0.53587311
H        1.93559673       1.14746941       0.27004469
O        1.33693753       0.03023801       1.82517702
H        0.62032263      -0.58057999       2.12498937
9
Properties=species:S:1:pos:R:3 energy=-725.1155382465074 pbc="F F F"
C       -1.03570924      -0.23178809      -0.96605663
C        0.08842194       0.14814821      -0.19343659
H       -1.98759866       0.07054116      -0.49346545
H       -1.07166156      -1.32213102      -1.14126818
H       -1.00217642       0.25344998      -1.96183244
C        1.11588490       0.48465546       0.53586673
H        1.93560297       1.14747186       0.27004825
O        1.33692767       0.03023469       1.82517022
H        0.62030841      -0.58058224       2.12497408
9
Properties=species:S:1:pos:R:3 energy=-725.1155359754118 pbc="F F F"
C       -1.03571318      -0.23179502      -0.96604730
C        0.08842819       0.14815984      -0.19345276
H       -1.98759980       0.07053847      -0.49345660
H       -1.07166096      -1.32213635      -1.14126056
H       -1.00216216       0.25345222      -1.96181707
C        1.11588673       0.48465964       0.53586033
H        1.93560921       1.14747432       0.27005180
O        1.33691780       0.03023137       1.82516340
H        0.62029416      -0.58058448       2.12495876
9
Properties=species:S:1:pos:R:3 energy=-725.1155336877385 pbc="F F F"
C       -1.03571714      -0.23180198      -0.96603794
C        0.08843443       0.14817148      -0.19346896
H       -1.98760095       0.07053578      -0.49344774
H       -1.07166037      -1.32214169      -1.14125294
H       -1.00214780       0.25345448      -1.96180164
C        1.11588856       0.48466383       0.53585391
H        1.93561546       1.14747678       0.27005534
O        1.33690791       0.03022805       1.82515656
H        0.62027990      -0.58058672       2.12494341
9
Properties=species:S:1:pos:R:3 energy=-725.1155313829802 pbc="F F F"
C       -1.03572112      -0.23180897      -0.96602854
C        0.08844067       0.14818313      -0.19348518
H       -1.98760213       0.07053308      -0.49343888
H       -1.07165979      -1.32214706      -1.14124532
H       -1.00213335       0.25345678      -1.96178615
C        1.11589039       0.48466802       0.53584748
H        1.93562170       1.14747924       0.27005887
O        1.33689801       0.03022473       1.82514970
H        0.62026562      -0.58058896       2.12492803
9
Properties=species:S:1:pos:R:3 energy=-725.1155290620763 pbc="F F F"
C       -1.03572512      -0.23181599      -0.96601911
C        0.08844692       0.14819480      -0.19350144
H       -1.98760332       0.07053038      -0.49343002
H       -1.07165923      -1.32215244      -1.14123770
H       -1.00211881       0.25345910      -1.96177058
C        1.11589221       0.48467223       0.53584102
H        1.93562794       1.14748171       0.27006239
O        1.33688809       0.03022141       1.82514282
H        0.62025132      -0.58059120       2.12491263
9
Properties=species:S:1:pos:R:3 energy=-725.1155267238379 pbc="F F F"
C       -1.03572914      -0.23182303      -0.96600965
C        0.08845316       0.14820648      -0.19351772
H       -1.98760454       0.07052767      -0.49342115
H       -1.07165868      -1.32215783      -1.14123009
H       -1.00210418       0.25346145      -1.96175495
C        1.11589403       0.48467643       0.53583454
H        1.93563419       1.14748419       0.27006589
O        1.33687816       0.03021809       1.82513592
H        0.62023701      -0.58059344       2.12489720
9
Properties=species:S:1:pos:R:3 energy=-725.1155243681128 pbc="F F F"
C       -1.03573319      -0.23183011      -0.96600016
C        0.08845940       0.14821818      -0.19353403
H       -1.98760578       0.07052495      -0.49341227
H       -1.07165814      -1.32216325      -1.14122247
H       -1.00208945       0.25346383      -1.96173924
C        1.11589584       0.48468065       0.53582804
H        1.93564043       1.14748667       0.27006939
O        1.33686822       0.03021477       1.82512900
H        0.62022267      -0.58059567       2.12488174
9
Properties=species:S:1:pos:R:3 energy=-725.1155219958607 pbc="F F F"
C       -1.03573726      -0.23183722      -0.96599063
C        0.08846565       0.14822988      -0.19355037
H       -1.98760704       0.07052222      -0.49340339
H       -1.07165762      -1.32216869      -1.14121485
H       -1.00207463       0.25346624      -1.96172347
C        1.11589766       0.48468487       0.53582153
H        1.93564667       1.14748915       0.27007287
O        1.33685826       0.03021145       1.82512205
H        0.62020832      -0.58059791       2.12486626
9
Properties=species:S:1:pos:R:3 energy=-725.1155196054742 pbc="F F F"
C       -1.03574135      -0.23184436      -0.96598107
C        0.08847189       0.14824160      -0.19356674
H       -1.98760833       0.07051949      -0.49339451
H       -1.07165711      -1.32217414      -1.14120723
H       -1.00205971       0.25346868      -1.96170763
C        1.11589946       0.48468910       0.53581499
H        1.93565292       1.14749164       0.27007635
O        1.33684828       0.03020813       1.82511509
H        0.62019395      -0.58060015       2.12485074
9
Properties=species:S:1:pos:R:3 energy=-725.1155171979352 pbc="F F F"
C       -1.03574546      -0.23185152      -0.96597147
C        0.08847813       0.14825334      -0.19358314
H       -1.98760963       0.07051675      -0.49338562
H       -1.07165661      -1.32217962      -1.14119961
H       -1.00204470       0.25347115      -1.96169171
C        1.11590127       0.48469334       0.53580843
H        1.93565916       1.14749413       0.27007981
O        1.33683830       0.03020481       1.82510811
H        0.62017956      -0.58060238       2.12483520
9
Properties=species:S:1:pos:R:3 energy=-725.1155147727029 pbc="F F F"
C       -1.03574960      -0.23185872      -0.96596184
C        0.08848437       0.14826508      -0.19359956
H       -1.98761096       0.07051401      -0.49337672
H       -1.07165613      -1.32218511      -1.14119200
H       -1.00202960       0.25347365      -1.96167573
C        1.11590307       0.48469758       0.53580185
H        1.93566540       1.14749663       0.27008327
O        1.33682830       0.03020149       1.82510110
H        0.62016515      -0.58060461       2.12481963
9
Properties=species:S:1:pos:R:3 energy=-725.1155123296785 pbc="F F F"
C       -1.03575375      -0.23186595      -0.96595218
C        0.08849061       0.14827684      -0.19361601
H       -1.98761231       0.07051125      -0.49336782
H       -1.07165567      -1.32219062      -1.14118438
H       -1.00201440       0.25347618      -1.96165968
C        1.11590486       0.48470183       0.53579526
H        1.93567165       1.14749914       0.27008671