9
Properties=species:S:1:pos:R:3 energy=-724.8416681181226 pbc="F F F"
C       -7.07514200       0.65495800       1.06400100
C       -5.69546900       1.06081800       1.39239500
H       -7.63845500       0.35288200       1.96448500
H       -7.08869600      -0.19820000       0.37349600
H       -7.63338400       1.47492600       0.59401900
C       -4.84196200       1.20875600       2.37857800
H       -3.82854600       1.55987400       2.21736600
O       -5.02316200       0.96753600       3.76216600
H       -5.95123800       0.64481300       3.91879700
9
Properties=species:S:1:pos:R:3 energy=-724.9090398441662 pbc="F F F"
C       -7.07672890       0.65811805       1.06216925
C       -5.71021932       1.04831894       1.42007591
H       -7.66146366       0.37360737       1.96129892
H       -7.08878434      -0.21220108       0.38950217
H       -7.61733942       1.47496969       0.56603012
C       -4.83593454       1.21674718       2.38061355
H       -3.82930370       1.58249083       2.21884601
O       -5.01581702       0.95904818       3.75735967
H       -5.94046310       0.62526383       3.90940740
9
Properties=species:S:1:pos:R:3 energy=-724.9573178455523 pbc="F F F"
C       -7.07834000       0.66085255       1.06081062
C       -5.72476037       1.03764019       1.44674424
H       -7.68505003       0.39449561       1.95567115
H       -7.08844785      -0.22657772       0.40797910
H       -7.59937539       1.47411410       0.53918348
C       -4.83078363       1.22477162       2.38231550
H       -3.83083503       1.60456587       2.22010860
O       -5.00858812       0.95056521       3.75246605
H       -5.92987358       0.60593556       3.90002425
9
Properties=species:S:1:pos:R:3 energy=-724.9900974645338 pbc="F F F"
C       -7.07998083       0.66311079       1.05995897
C       -5.73907241       1.02878904       1.47228510
H       -7.70912298       0.41545004       1.94774042
H       -7.08768877      -0.24129798       0.42873505
H       -7.57955250       1.47245468       0.51358418
C       -4.82650472       1.23280292       2.38368120
H       -3.83311000       1.62602202       2.22115304
O       -5.00151469       0.94212393       3.74747544
H       -5.91950711       0.58690757       3.89068959
9
Properties=species:S:1:pos:R:3 energy=-725.0103531885344 pbc="F F F"
C       -7.08165693       0.66484205       1.05964815
C       -5.75313570       1.02177277       1.49658359
H       -7.73359133       0.43637398       1.93764547
H       -7.08650937      -0.25632995       0.45157830
H       -7.55793136       1.47008689       0.48933732
C       -4.82309328       1.24081469       2.38470801
H       -3.83609859       1.64678218       2.22197859
O       -4.99463608       0.93376117       3.74237813
H       -5.90940136       0.56825923       3.88144545
9
Properties=species:S:1:pos:R:3 energy=-725.0205002644307 pbc="F F F"
C       -7.08337385       0.66599561       1.05991200
C       -5.76693051       1.01659868       1.51952481
H       -7.75836394       0.45717074       1.92552504
H       -7.08491191      -0.27164169       0.47631708
H       -7.53457255       1.46710619       0.46654798
C       -4.82054476       1.24878053       2.38539328
H       -3.83977080       1.66676925       2.22258453
O       -4.98799169       0.92551378       3.73716442
H       -5.89959400       0.55006991       3.87233385
9
Properties=species:S:1:pos:R:3 energy=-725.0224499967636 pbc="F F F"
C       -7.08513713       0.66652077       1.06078438
C       -5.78043710       1.01327406       1.54099387
H       -7.78334964       0.47774365       1.91151786
H       -7.08289863      -0.28720129       0.50275968
H       -7.50953667       1.46360803       0.44532128
C       -4.81885463       1.25667405       2.38573437
H       -3.84409661       1.68590613       2.22297012
O       -4.98162089       0.91741859       3.73182460
H       -5.89012270       0.53241901       3.86339683
9
Properties=species:S:1:pos:R:3 energy=-725.0176558757629 pbc="F F F"
C       -7.08695230       0.66636681       1.06229913
C       -5.79363574       1.01180619       1.56087587
H       -7.80845727       0.49799603       1.89576267
H       -7.08047180      -0.30297681       0.53071435
H       -7.48288432       1.45968786       0.42576231
C       -4.81801834       1.26446885       2.38572864
H       -3.84904603       1.70411573       2.22313464
O       -4.97556305       0.90951245       3.72634897
H       -5.88102515       0.51538588       3.85467642
9
Properties=species:S:1:pos:R:3 energy=-725.0071472734708 pbc="F F F"
C       -7.08882492       0.66548302       1.06449011
C       -5.80650669       1.01220237       1.57905591
H       -7.83359568       0.51783119       1.87839822
H       -7.07763368      -0.31893632       0.55998935
H       -7.45467608       1.45544115       0.40797617
C       -4.81803136       1.27213853       2.38537344
H       -3.85458903       1.72132095       2.22307736
O       -4.96985755       0.90183220       3.72072782
H       -5.87233900       0.49904990       3.84621464
9
Properties=species:S:1:pos:R:3 energy=-724.991548151747 pbc="F F F"
C       -7.09076052       0.66381869       1.06739116
C       -5.81903022       1.01446989       1.59541909
H       -7.85867372       0.53715246       1.85956323
H       -7.07438652      -0.33504791       0.59039294
H       -7.42497256       1.45096333       0.39206795
C       -4.81888915       1.27965671       2.38466612
H       -3.86069562       1.73744469       2.22279755
O       -4.96454377       0.89441468       3.71495145
H       -5.86410193       0.48349046       3.83805352
9
Properties=species:S:1:pos:R:3 energy=-724.9710793561994 pbc="F F F"
C       -7.09276465       0.66132310       1.07103615
C       -5.83118659       1.01861603       1.60985052
H       -7.88360021       0.55586316       1.83939644
H       -7.07073257      -0.35127965       0.62173338
H       -7.39383434       1.44634987       0.37814275
C       -4.82058717       1.28699698       2.38360404
H       -3.86733579       1.75240985       2.22229446
O       -4.95966108       0.88729672       3.70901015
H       -5.85635161       0.46878693       3.83023511
9
Properties=species:S:1:pos:R:3 energy=-724.9455458507088 pbc="F F F"
C       -7.09484284       0.65794555       1.07545891
C       -5.84295606       1.02464809       1.62223530
H       -7.90828402       0.57386661       1.81803659
H       -7.06667410      -0.36759961       0.65381894
H       -7.36132202       1.44169622       0.36630567
C       -4.82312087       1.29413295       2.38218455
H       -3.87447952       1.76613933       2.22156739
O       -4.95524885       0.88051518       3.70289423
H       -5.84912571       0.45501868       3.82280141
9
Properties=species:S:1:pos:R:3 energy=-724.9143120682187 pbc="F F F"
C       -7.09700064       0.65363531       1.08069330
C       -5.85431890       1.03257335       1.63245853
H       -7.93263397       0.59106613       1.79562243
H       -7.06221337      -0.38397586       0.68645788
H       -7.32749620       1.43709784       0.35666181
C       -4.82648573       1.30103822       2.38040501
H       -3.88209681       1.77855604       2.22061559
O       -4.95134647       0.87410688       3.69659397
H       -5.84246191       0.44226510       3.81579448
9
Properties=species:S:1:pos:R:3 energy=-724.8762705098062 pbc="F F F"
C       -7.09924360       0.64834168       1.08677317
C       -5.86525538       1.04239911       1.64040531
H       -7.95655891       0.60736503       1.77229268
H       -7.05735262      -0.40037648       0.71945846
H       -7.29241747       1.43265018       0.34931627
C       -4.83067719       1.30768641       2.37826278
H       -3.89015765       1.78958287       2.21943834
O       -4.94799331       0.86810866       3.69009967
H       -5.83639788       0.43060555       3.80925633
9
Properties=species:S:1:pos:R:3 energy=-724.8298392216345 pbc="F F F"
C       -7.10158475       0.64200946       1.09374211
C       -5.87577485       1.05408797       1.64598401
H       -7.97995926       0.62268115       1.74820442
H       -7.05210098      -0.41676951       0.75261883
H       -7.25614904       1.42847659       0.34434383
C       -4.83568287       1.31405484       2.37575303
H       -3.89861711       1.79917088       2.21803888
O       -4.94521997       0.86255131       3.68340045
H       -5.83096517       0.42010031       3.80321745
9
Properties=species:S:1:pos:R:3 energy=-724.773143134264 pbc="F F F"
C       -7.10407914       0.63455847       1.10169820
C       -5.88604960       1.06735256       1.64923308
H       -8.00268831       0.63701351       1.72361732
H       -7.04650595      -0.43312278       0.78568062
H       -7.21876874       1.42485645       0.34164972
C       -4.84144633       1.32014179       2.37285872
H       -3.90734677       1.80742858       2.21644274
O       -4.94300804       0.85743160       3.67647894
H       -5.82616113       0.41070281       3.79764366
9
Properties=species:S:1:pos:R:3 energy=-724.7040687099152 pbc="F F F"
C       -7.10679641       0.62589979       1.11075845
C       -5.89630849       1.08181858       1.65023625
H       -8.02458297       0.65038936       1.69882673
H       -7.04062840      -0.44940404       0.81836580
H       -7.18035950       1.42212343       0.34108018
C       -4.84789587       1.32595279       2.36955857
H       -3.91618917       1.81451925       2.21468319
O       -4.94132200       0.85273452       3.66931548
H       -5.82197119       0.40232932       3.79247835
9
Properties=species:S:1:pos:R:3 energy=-724.6202488112527 pbc="F F F"
C       -7.10980622       0.61594453       1.12103992
C       -5.90678048       1.09711165       1.64907725
H       -8.04548014       0.66283596       1.67412804
H       -7.03452919      -0.46558106       0.85039632
H       -7.14100424       1.42061121       0.34248143
C       -4.85495976       1.33149338       2.36583130
H       -3.92498683       1.82060623       2.21279349
O       -4.94012637       0.84844504       3.66189041
H       -5.81838079       0.39489606       3.78766484
9
Properties=species:S:1:pos:R:3 energy=-724.5190445106684 pbc="F F F"
C       -7.11317822       0.60460376       1.13265964
C       -5.91769449       1.11285738       1.64583983
H       -8.06521670       0.67438060       1.64981662
H       -7.02826920      -0.48162159       0.88149413
H       -7.10078588       1.42065351       0.34569966
C       -4.86256627       1.33676911       2.36165563
H       -3.93358227       1.82585283       2.21080693
O       -4.93938562       0.84454813       3.65418407
H       -5.81537535       0.38831927       3.78314649
9
Properties=species:S:1:pos:R:3 energy=-724.3975601479524 pbc="F F F"
C       -7.11698207       0.59178859       1.14573466
C       -5.92927949       1.12868140       1.64060775
H       -8.08362954       0.68505055       1.62618785
H       -7.02190929      -0.49749340       0.91138118
H       -7.05978736       1.42258402       0.35058107
C       -4.87064367       1.34178551       2.35701027
H       -3.94181800       1.83042239       2.20875678
O       -4.93906427       0.84102876       3.64617681
H       -5.81294032       0.38251518       3.77886664
9
Properties=species:S:1:pos:R:3 energy=-724.2528258752649 pbc="F F F"
C       -7.12128606       0.57741240       1.16037958
C       -5.94176100       1.14421082       1.63346552
H       -8.10055664       0.69487175       1.60353505
H       -7.01551065      -0.51316451       0.93978264
H       -7.01809264       1.42673539       0.35697200
C       -4.87912048       1.34654775       2.35187431
H       -3.94953840       1.83447698       2.20667565
O       -4.93912716       0.83787186       3.63784922
H       -5.81106097       0.37740056       3.77476903
9
Properties=species:S:1:pos:R:3 energy=-724.0828834933611 pbc="F F F"
C       -7.12607610       0.56152689       1.17656333
C       -5.95516066       1.15916234       1.62454327
H       -8.11590060       0.70378939       1.58202783
H       -7.00915369      -0.52861935       0.96661753
H       -6.97584847       1.43337638       0.36472678
C       -4.88794039       1.35103871       2.34624970
H       -3.95669922       1.83810337       2.20455596
O       -4.93956094       0.83506062       3.62919708
H       -5.80971393       0.37292464       3.77082153
9
Properties=species:S:1:pos:R:3 energy=-723.8894604849538 pbc="F F F"
C       -7.13121045       0.54439812       1.19402895
C       -5.96918404       1.17339157       1.61404186
H       -8.12966418       0.71162360       1.56164408
H       -7.00294858      -0.54386777       0.99210525
H       -6.93329891       1.44267678       0.37371211
C       -4.89707058       1.35520669       2.34017376
H       -3.96342883       1.84127161       2.20232790
O       -4.94038604       0.83257548       3.62023968
H       -5.80886239       0.36908691       3.76702941
9
Properties=species:S:1:pos:R:3 energy=-723.6809920683518 pbc="F F F"
C       -7.13653638       0.52631059       1.21250009
C       -5.98350952       1.18676603       1.60216822
H       -8.14185880       0.71818371       1.54234518
H       -6.99700806      -0.55892179       1.01649106
H       -6.89069638       1.45479785       0.38379579
C       -4.90648025       1.35899702       2.33368687
H       -3.96987046       1.84394171       2.19991628
O       -4.94162578       0.83039666       3.61099836
H       -5.80846837       0.36589122       3.76340116
9
Properties=species:S:1:pos:R:3 energy=-723.477816813836 pbc="F F F"
C       -7.14190117       0.50754879       1.23170037
C       -5.99781548       1.19915327       1.58912930
H       -8.15249583       0.72327906       1.52409250
H       -6.99144487      -0.57379345       1.04002022
H       -6.84829329       1.46990086       0.39484561
C       -4.91613860       1.36235502       2.32682940
H       -3.97616734       1.84607368       2.19724592
O       -4.94330350       0.82850437       3.60149444
H       -5.80849390       0.36334140       3.75994525
9
Properties=species:S:1:pos:R:3 energy=-723.3204022879789 pbc="F F F"
C       -7.14715209       0.48839722       1.25135342
C       -6.01178031       1.21042082       1.57513203
H       -8.16158669       0.72671899       1.50684743
H       -6.98637175      -0.58849476       1.06293799
H       -6.80634208       1.48814706       0.40672934
C       -4.92601485       1.36522603       2.31964172
H       -3.98246269       1.84762752       2.19424165
O       -4.94544252       0.82687883       3.59174924
H       -5.80890102       0.36144127       3.75667017
9
Properties=species:S:1:pos:R:3 energy=-723.2686544489829 pbc="F F F"
C       -7.15213641       0.46914038       1.27118289
C       -6.02508238       1.22043622       1.56038335
H       -8.16914276       0.72831285       1.49057135
H       -6.98190143      -0.60303775       1.08548963
H       -6.76509516       1.50969773       0.41931477
C       -4.93607818       1.36755538       2.31216423
H       -3.98889974       1.84856325       2.19082828
O       -4.94806618       0.82550026       3.58178410
H       -5.80965176       0.36019468       3.75358440
9
Properties=species:S:1:pos:R:3 energy=-723.3596654894142 pbc="F F F"
C       -7.15671011       0.45005996       1.29091647
C       -6.03743547       1.22908291       1.54509242
H       -8.17518195       0.72790093       1.47519020
H       -6.97814196      -0.61742483       1.10794256
H       -6.72479018       1.53465158       0.43246083
C       -4.94629259       1.36929859       2.30444025
H       -3.99560781       1.84885522       2.18694245
O       -4.95118860       0.82434595       3.57162515
H       -5.81070531       0.35959268       3.75069266
9
Properties=species:S:1:pos:R:3 energy=-723.5637554591799 pbc="F F F"
C       -7.16079819       0.43141539       1.31031417
C       -6.04883447       1.23637065       1.52948603
H       -8.17977385       0.72556931       1.46034846
H       -6.97516423      -0.63158190       1.13074023
H       -6.68554752       1.56261054       0.44595607
C       -4.95658061       1.37049220       2.29653669
H       -4.00260592       1.84859174       2.18261474
O       -4.95475095       0.82337016       3.56133687
H       -5.81199826       0.35952490       3.74796975
9
Properties=species:S:1:pos:R:3 energy=-723.8206972703226 pbc="F F F"
C       -7.16435862       0.41345547       1.32915137
C       -6.05940828       1.24236944       1.51379935
H       -8.18301269       0.72152129       1.44555636
H       -6.97302137      -0.64539840       1.15441002
H       -6.64743158       1.59293965       0.45955550
C       -4.96684497       1.37121139       2.28853172
H       -4.00986044       1.84791546       2.17792047
O       -4.95865957       0.82251611       3.55100200
H       -5.81345647       0.35983259       3.74537621
9
Properties=species:S:1:pos:R:3 energy=-724.0854570895368 pbc="F F F"
C       -7.16734954       0.39642895       1.34720357
C       -6.06928668       1.24714962       1.49826763
H       -8.18499285       0.71596087       1.43032333
H       -6.97176640      -0.65876353       1.17947983
H       -6.61050647       1.62500249       0.47301392
C       -4.97698833       1.37153156       2.28050354
H       -4.01733743       1.84696936       2.17293528
O       -4.96282058       0.82172698       3.54070341
H       -5.81500571       0.36035671       3.74287248
9
Properties=species:S:1:pos:R:3 energy=-724.333687039395 pbc="F F F"
C       -7.16972910       0.38058456       1.36424628
C       -6.07859940       1.25078157       1.48312611
H       -8.18580873       0.70909207       1.41415879
H       -6.97145236      -0.67156651       1.20647757
H       -6.57483626       1.65816264       0.48608612
C       -4.98691332       1.37152812       2.27253039
H       -4.02500296       1.84589642       2.16773478
O       -4.96714013       0.82094592       3.53052394
H       -5.81657174       0.36093820       3.74041901
9
Properties=species:S:1:pos:R:3 energy=-724.5540949829896 pbc="F F F"
C       -7.17145546       0.36617105       1.38005498
C       -6.08747621       1.25333564       1.46861003
H       -8.18555471       0.70111891       1.39657216
H       -6.97213227      -0.68369654       1.23593113
H       -6.54048504       1.69178369       0.49852691
C       -4.99652257       1.37127648       2.26469046
H       -4.03282307       1.84483963       2.16239461
O       -4.97152434       0.82011610       3.52054646
H       -5.81808035       0.36141803       3.73797625
9
Properties=species:S:1:pos:R:3 energy=-724.7429742684178 pbc="F F F"
C       -7.17248714       0.35343647       1.39440568
C       -6.09604649       1.25488240       1.45495414
H       -8.18432510       0.69224520       1.37707395
H       -6.97385906      -0.69504270       1.26836692
H       -6.50751695       1.72522971       0.51009140
C       -5.00571879       1.37085196       2.25706198
H       -4.04076368       1.84394182       2.15699045
O       -4.97587942       0.81918084       3.51085374
H       -5.81945737       0.36163730       3.73550474
9
Properties=species:S:1:pos:R:3 energy=-724.9015241637156 pbc="F F F"
C       -7.17284420       0.34251626       1.40715758
C       -6.10438042       1.25552453       1.44231527
H       -8.18220362       0.68264304       1.35535173
H       -6.97667109      -0.70547296       1.30406754
H       -6.47600649       1.75794499       0.52058721
C       -5.01441650       1.37031407       2.24971959
H       -4.04876531       1.84332298       2.15161015
O       -4.98012556       0.81810736       3.50151492
H       -5.82064081       0.36146273       3.73297900
9
Properties=species:S:1:pos:R:3 energy=-725.0337238453138 pbc="F F F"
C       -7.17267574       0.33330975       1.41834437
C       -6.11242400       1.25543203       1.43068676
H       -8.17925168       0.67241799       1.33146434
H       -6.98057606      -0.71481100       1.34280438
H       -6.44604984       1.78954210       0.52993202
C       -5.02255505       1.36968919       2.24273057
H       -4.05671533       1.84305516       2.14636703
O       -4.98421217       0.81691307       3.49257062
H       -5.82159413       0.36081472       3.73040291
9
Properties=species:S:1:pos:R:3 energy=-725.1439280122527 pbc="F F F"
C       -7.17214710       0.32568651       1.42802168
C       -6.12010762       1.25478341       1.42004140
H       -8.17552792       0.66166724       1.30551738
H       -6.98557783      -0.72287493       1.38428444
H       -6.41774593       1.81965476       0.53805738
C       -5.03007688       1.36899957       2.23616123
H       -4.06449436       1.84320436       2.14137764
O       -4.98809237       0.81562166       3.48405783
H       -5.82228399       0.35962042       3.72778404
9
Properties=species:S:1:pos:R:3 energy=-725.2361680035975 pbc="F F F"
C       -7.17142361       0.31951614       1.43624514
C       -6.12736165       1.25375717       1.41035195
H       -8.17109094       0.65048798       1.27761646
H       -6.99168028      -0.72948287       1.42821473
H       -6.39119368       1.84791671       0.54489482
C       -5.03692443       1.36826741       2.23007791
H       -4.07198308       1.84383660       2.13675849
O       -4.99171928       0.81425685       3.47601354
H       -5.82267706       0.35780701       3.72512995
9
Properties=species:S:1:pos:R:3 energy=-725.3139269701451 pbc="F F F"
C       -7.17067060       0.31466823       1.44307041
C       -6.13411647       1.25253181       1.40159121
H       -8.16599938       0.63897740       1.24786717
H       -6.99888727      -0.73445292       1.47430225
H       -6.36649200       1.87396168       0.55037590
C       -5.04304017       1.36751493       2.22454694
H       -4.07906211       1.84501788       2.13262612
O       -4.99504600       0.81284234       3.46847476
H       -5.82274001       0.35530164       3.72244823
9
Properties=species:S:1:pos:R:3 energy=-725.3801117462476 pbc="F F F"
C       -7.17005343       0.31101236       1.44855313
C       -6.14030245       1.25128584       1.39373194
H       -8.16031185       0.62723268       1.21637511
H       -7.00720265      -0.73760318       1.52225401
H       -6.34373982       1.89742339       0.55443216
C       -5.04836654       1.36676438       2.21963465
H       -4.08561211       1.84681422       2.12909707
O       -4.99802564       0.81140184       3.46147850
H       -5.82243950       0.35203147       3.71974644
9
Properties=species:S:1:pos:R:3 energy=-725.4371253488855 pbc="F F F"
C       -7.16972757       0.30842055       1.45275609
C       -6.14585350       1.25018718       1.38674333
H       -8.15408483       0.61534167       1.18326218
H       -7.01662955      -0.73875220       1.57176826
H       -6.32301766       1.91795967       0.55700568
C       -5.05285518       1.36603813       2.21540435
H       -4.09153178       1.84929230       2.12627608
O       -5.00061207       0.80995256       3.45506053
H       -5.82174186       0.34792314       3.71702650
9
Properties=species:S:1:pos:R:3 energy=-725.4870356640382 pbc="F F F"
C       -7.16973382       0.30679300       1.45582535
C       -6.15074439       1.24928099       1.38055291
H       -8.14734969       0.60328350       1.14883985
H       -7.02716256      -0.73772342       1.62244133
H       -6.30419226       1.93550813       0.55816108
C       -5.05656463       1.36536071       2.21188442
H       -4.09692956       1.85252649       2.12413096
O       -5.00276775       0.80843631       3.44924248
H       -5.82060934       0.34289730       3.71422461
9
Properties=species:S:1:pos:R:3 energy=-725.5313377773299 pbc="F F F"
C       -7.17003903       0.30604808       1.45796070
C       -6.15497629       1.24853317       1.37506131
H       -8.14012164       0.59096716       1.11354186
H       -7.03879075      -0.73434346       1.67380381
H       -6.28699241       1.95018696       0.55804205
C       -5.05962235       1.36475797       2.20908067
H       -4.10204923       1.85659618       2.12254118
O       -5.00446073       0.80674626       3.44403688
H       -5.81900156       0.33687069       3.71123455
9
Properties=species:S:1:pos:R:3 energy=-725.5709613425818 pbc="F F F"
C       -7.17060882       0.30610449       1.45936278
C       -6.15855079       1.24790832       1.37016871
H       -8.13241562       0.57830050       1.07780397
H       -7.05150310      -0.72843898       1.72538518
H       -6.27114461       1.96211732       0.55679359
C       -5.06215698       1.36425580       2.20699854
H       -4.10713682       1.86158081       2.12138473
O       -5.00565913       0.80477474       3.43945606
H       -5.81687812       0.32975999       3.70794943
9
Properties=species:S:1:pos:R:3 energy=-725.6065117183023 pbc="F F F"
C       -7.17140880       0.30688091       1.46023228
C       -6.16146952       1.24737105       1.36577530
H       -8.12424655       0.56519136       1.04206199
H       -7.06528859      -0.71983665       1.77671496
H       -6.25637537       1.97142040       0.55456068
C       -5.06429713       1.36388009       2.20564347
H       -4.11243837       1.86755983       2.12053958
O       -5.00633109       0.80241409       3.43551240
H       -5.81419859       0.32148191       3.70426234
9
Properties=species:S:1:pos:R:3 energy=-725.6384901911144 pbc="F F F"
C       -7.17240456       0.30829603       1.46076986
C       -6.16373406       1.24688595       1.36178127
H       -8.11562936       0.55154756       1.00675167
H       -7.08013618      -0.70836315       1.82732262
H       -6.24241118       1.97821738       0.55148834
C       -5.06617145       1.36365672       2.20502091
H       -4.11819991       1.87461270       2.11988374
O       -5.00644474       0.79955667       3.43221824
H       -5.81092256       0.31195313       3.70006635
9
Properties=species:S:1:pos:R:3 energy=-725.6674623958222 pbc="F F F"
C       -7.17356174       0.31026855       1.46117613
C       -6.16534602       1.24641762       1.35808684
H       -8.10657901       0.53727699       0.97230876
H       -7.09603485      -0.69384522       1.87673774
H       -6.22897860       1.98262943       0.54772153
C       -5.06790852       1.36361158       2.20513627
H       -4.12466741       1.88281883       2.11929520
O       -5.00596822       0.79609484       3.42958594
H       -5.80700963       0.30109038       3.69525460
9
Properties=species:S:1:pos:R:3 energy=-725.694044382257 pbc="F F F"
C       -7.17486055       0.31273163       1.46159995
C       -6.16631085       1.24593549       1.35462502
H       -8.09712224       0.52233169       0.93910486
H       -7.11294391      -0.67619438       1.92455976
H       -6.21585970       1.98477022       0.54338326
C       -5.06961372       1.36376519       2.20598299
H       -4.13202601       1.89222477       2.11867652
O       -5.00488182       0.79195081       3.42762035
H       -5.80243519       0.28884759       3.68975030
9
Properties=species:S:1:pos:R:3 energy=-725.7186123854566 pbc="F F F"
C       -7.17632315       0.31566004       1.46204128
C       -6.16664500       1.24542288       1.35142319
H       -8.08731973       0.50679071       0.90732724
H       -7.13073755      -0.65556601       1.97058916
H       -6.20299626       1.98473187       0.53853336
C       -5.07132555       1.36412272       2.20751995
H       -4.14028590       1.90278247       2.11800075
O       -5.00320074       0.78713260       3.42630484
H       -5.79722010       0.27528572       3.68356323
9
Properties=species:S:1:pos:R:3 energy=-725.7413910184808 pbc="F F F"
C       -7.17797922       0.31903596       1.46247350
C       -6.16636691       1.24486559       1.34852558
H       -8.07723825       0.49075583       0.87713024
H       -7.14927473      -0.63215903       2.01466235
H       -6.19035860       1.98260265       0.53322038
C       -5.07307056       1.36468658       2.20969984
H       -4.14942597       1.91442700       2.11725357
O       -5.00094645       0.78166355       3.42561890
H       -5.79139331       0.26048487       3.67671864
9
Properties=species:S:1:pos:R:3 energy=-725.7625135462107 pbc="F F F"
C       -7.17985840       0.32284159       1.46286997
C       -6.16549499       1.24424942       1.34597643
H       -8.06694453       0.47432880       0.84866817
H       -7.16841439      -0.60617238       2.05661573
H       -6.17791706       1.97847081       0.52749285
C       -5.07487532       1.36545919       2.21247538
H       -4.15942513       1.92709341       2.11642065
O       -4.99814039       0.77556702       3.42554203
H       -5.78498379       0.24452514       3.66924179
9
Properties=species:S:1:pos:R:3 energy=-725.7820367173427 pbc="F F F"
C       -7.18199038       0.32705913       1.46320403
C       -6.16404769       1.24356017       1.34381997
H       -8.05650534       0.45761139       0.82209535
H       -7.18801548      -0.57780500       2.09628571
H       -6.16564194       1.97242463       0.52139931
C       -5.07676637       1.36644296       2.21579927
H       -4.17026229       1.94071677       2.11548768
O       -4.99480401       0.76886635       3.42605374
H       -5.77802049       0.22748660       3.66115794
9
Properties=species:S:1:pos:R:3 energy=-725.7999405032543 pbc="F F F"
C       -7.18440481       0.33167076       1.46344907
C       -6.16204342       1.24278364       1.34210045
H       -8.04598744       0.44070536       0.79756611
H       -7.20793697      -0.54725583       2.13350870
H       -6.15350357       1.96455235       0.51498829
C       -5.07877029       1.36764031       2.21962423
H       -4.18191636       1.95523213       2.11444031
O       -4.99095877       0.76158491       3.42713352
H       -5.77053238       0.20944936       3.65249232
9
Properties=species:S:1:pos:R:3 energy=-725.8161107424295 pbc="F F F"
C       -7.18713135       0.33665869       1.46357844
C       -6.15950061       1.24190563       1.34086209
H       -8.03545756       0.42371247       0.77523476
H       -7.22803780      -0.51472379       2.16812109
H       -6.14147227       1.95494226       0.50830834
C       -5.08091361       1.36905364       2.22390295
H       -4.19436625       1.97057456       2.11326423