2
Properties=species:S:1:pos:R:3 energy=-4089.9899933781667 pbc="F F F"
O        0.93856600      -0.00940900      -0.00191800
O        2.04375800      -0.00940900      -0.00191800
