9
Properties=species:S:1:pos:R:3 energy=-723.1488464953337 pbc="F F F"
C        0.07500649       0.52174004      -0.97557963
C       -0.63464540      -0.44412254      -0.19137079
H        0.50105539       0.07266289      -1.89030819
H        0.92473408       0.97747860      -0.42221208
H       -0.57896893       1.35515588      -1.28807142
C       -1.22742517      -1.25584657       0.47417558
H       -1.74336206      -1.95276108       1.03305110
O        1.63070097       0.70240085       1.42478089
H        1.05290463       0.02329193       1.83553454
9
Properties=species:S:1:pos:R:3 energy=-723.1488424222603 pbc="F F F"
C        0.07500313       0.52174586      -0.97559802
C       -0.63463792      -0.44411393      -0.19137571
H        0.50104465       0.07266338      -1.89032741
H        0.92473231       0.97749043      -0.42224042
H       -0.57897924       1.35515585      -1.28809085
C       -1.22740789      -1.25583534       0.47418261
H       -1.74333708      -1.95274783       1.03306762
O        1.63069110       0.70237543       1.42481716
H        1.05289093       0.02326615       1.83556501
9
Properties=species:S:1:pos:R:3 energy=-723.1488383485738 pbc="F F F"
C        0.07499978       0.52175169      -0.97561641
C       -0.63463043      -0.44410532      -0.19138063
H        0.50103391       0.07266388      -1.89034662
H        0.92473054       0.97750226      -0.42226877
H       -0.57898955       1.35515582      -1.28811029
C       -1.22739060      -1.25582411       0.47418965
H       -1.74331209      -1.95273459       1.03308415
O        1.63068122       0.70235000       1.42485343
H        1.05287722       0.02324037       1.83559550
9
Properties=species:S:1:pos:R:3 energy=-723.1488342741957 pbc="F F F"
C        0.07499643       0.52175752      -0.97563480
C       -0.63462294      -0.44409670      -0.19138555
H        0.50102317       0.07266437      -1.89036584
H        0.92472878       0.97751410      -0.42229713
H       -0.57899987       1.35515580      -1.28812973
C       -1.22737331      -1.25581287       0.47419669
H       -1.74328710      -1.95272134       1.03310068
O        1.63067133       0.70232456       1.42488969
H        1.05286352       0.02321457       1.83562600
9
Properties=species:S:1:pos:R:3 energy=-723.1488301992241 pbc="F F F"
C        0.07499307       0.52176335      -0.97565320
C       -0.63461545      -0.44408809      -0.19139048
H        0.50101242       0.07266486      -1.89038506
H        0.92472701       0.97752593      -0.42232550
H       -0.57901019       1.35515577      -1.28814918
C       -1.22735602      -1.25580164       0.47420372
H       -1.74326210      -1.95270809       1.03311722
O        1.63066143       0.70229912       1.42492596
H        1.05284982       0.02318878       1.83565651
9
Properties=species:S:1:pos:R:3 energy=-723.1488261235903 pbc="F F F"
C        0.07498972       0.52176918      -0.97567160
C       -0.63460796      -0.44407947      -0.19139540
H        0.50100168       0.07266536      -1.89040429
H        0.92472524       0.97753778      -0.42235387
H       -0.57902050       1.35515575      -1.28816862
C       -1.22733872      -1.25579039       0.47421076
H       -1.74323710      -1.95269483       1.03313376
O        1.63065152       0.70227367       1.42496223
H        1.05283612       0.02316297       1.83568704
9
Properties=species:S:1:pos:R:3 energy=-723.1488220472897 pbc="F F F"
C        0.07498637       0.52177501      -0.97569001
C       -0.63460046      -0.44407085      -0.19140033
H        0.50099093       0.07266585      -1.89042352
H        0.92472347       0.97754962      -0.42238224
H       -0.57903082       1.35515572      -1.28818807
C       -1.22732141      -1.25577915       0.47421781
H       -1.74321209      -1.95268157       1.03315030
O        1.63064159       0.70224821       1.42499849
H        1.05282241       0.02313716       1.83571758
9
Properties=species:S:1:pos:R:3 energy=-723.1488179703613 pbc="F F F"
C        0.07498301       0.52178084      -0.97570841
C       -0.63459296      -0.44406223      -0.19140525
H        0.50098019       0.07266635      -1.89044275
H        0.92472171       0.97756147      -0.42241063
H       -0.57904114       1.35515570      -1.28820753
C       -1.22730410      -1.25576790       0.47422485
H       -1.74318707      -1.95266831       1.03316684
O        1.63063166       0.70222274       1.42503475
H        1.05280871       0.02311135       1.83574813
9
Properties=species:S:1:pos:R:3 energy=-723.1488138927646 pbc="F F F"
C        0.07497966       0.52178668      -0.97572683
C       -0.63458546      -0.44405361      -0.19141018
H        0.50096944       0.07266684      -1.89046199
H        0.92471994       0.97757332      -0.42243901
H       -0.57905147       1.35515567      -1.28822698
C       -1.22728679      -1.25575665       0.47423189
H       -1.74316205      -1.95265505       1.03318339
O        1.63062172       0.70219727       1.42507101
H        1.05279501       0.02308552       1.83577870
9
Properties=species:S:1:pos:R:3 energy=-723.1488098145422 pbc="F F F"
C        0.07497630       0.52179251      -0.97574524
C       -0.63457796      -0.44404498      -0.19141511
H        0.50095869       0.07266734      -1.89048122
H        0.92471818       0.97758518      -0.42246741
H       -0.57906179       1.35515565      -1.28824644
C       -1.22726948      -1.25574540       0.47423894
H       -1.74313702      -1.95264178       1.03319994
O        1.63061178       0.70217179       1.42510727
H        1.05278131       0.02305970       1.83580927
9
Properties=species:S:1:pos:R:3 energy=-723.1488057356647 pbc="F F F"
C        0.07497295       0.52179835      -0.97576366
C       -0.63457046      -0.44403635      -0.19142003
H        0.50094793       0.07266783      -1.89050046
H        0.92471642       0.97759703      -0.42249581
H       -0.57907211       1.35515563      -1.28826590
C       -1.22725216      -1.25573415       0.47424599
H       -1.74311199      -1.95262851       1.03321650
O        1.63060182       0.70214630       1.42514352
H        1.05276760       0.02303386       1.83583986
9
Properties=species:S:1:pos:R:3 energy=-723.1488016561378 pbc="F F F"
C        0.07496959       0.52180419      -0.97578208
C       -0.63456295      -0.44402772      -0.19142496
H        0.50093718       0.07266833      -1.89051971
H        0.92471465       0.97760890      -0.42252421
H       -0.57908244       1.35515561      -1.28828537
C       -1.22723483      -1.25572289       0.47425304
H       -1.74308695      -1.95261523       1.03323305
O        1.63059185       0.70212081       1.42517977
H        1.05275390       0.02300802       1.83587047
9
Properties=species:S:1:pos:R:3 energy=-723.1487975759627 pbc="F F F"
C        0.07496624       0.52181003      -0.97580050
C       -0.63455544      -0.44401909      -0.19142989
H        0.50092643       0.07266883      -1.89053896
H        0.92471289       0.97762076      -0.42255263
H       -0.57909277       1.35515558      -1.28830484
C       -1.22721750      -1.25571163       0.47426009
H       -1.74306191      -1.95260196       1.03324962
O        1.63058187       0.70209530       1.42521603
H        1.05274020       0.02298217       1.83590108
9
Properties=species:S:1:pos:R:3 energy=-723.1487934951379 pbc="F F F"
C        0.07496288       0.52181587      -0.97581893
C       -0.63454793      -0.44401046      -0.19143482
H        0.50091567       0.07266932      -1.89055821
H        0.92471113       0.97763263      -0.42258104
H       -0.57910310       1.35515556      -1.28832431
C       -1.22720017      -1.25570036       0.47426714
H       -1.74303686      -1.95258868       1.03326618
O        1.63057188       0.70206979       1.42525228
H        1.05272649       0.02295632       1.83593171
9
Properties=species:S:1:pos:R:3 energy=-723.148789413659 pbc="F F F"
C        0.07495953       0.52182171      -0.97583736
C       -0.63454042      -0.44400182      -0.19143975
H        0.50090492       0.07266982      -1.89057746
H        0.92470937       0.97764450      -0.42260947
H       -0.57911343       1.35515554      -1.28834378
C       -1.22718284      -1.25568910       0.47427419
H       -1.74301181      -1.95257539       1.03328275
O        1.63056188       0.70204428       1.42528852
H        1.05271279       0.02293046       1.83596236
9
Properties=species:S:1:pos:R:3 energy=-723.1487853315333 pbc="F F F"
C        0.07495617       0.52182756      -0.97585580
C       -0.63453290      -0.44399318      -0.19144468
H        0.50089416       0.07267031      -1.89059672
H        0.92470761       0.97765638      -0.42263790
H       -0.57912376       1.35515552      -1.28836326
C       -1.22716549      -1.25567783       0.47428125
H       -1.74298675      -1.95256210       1.03329932
O        1.63055188       0.70201875       1.42532477
H        1.05269909       0.02290460       1.83599301
9
Properties=species:S:1:pos:R:3 energy=-723.1487812487555 pbc="F F F"
C        0.07495281       0.52183340      -0.97587423
C       -0.63452538      -0.44398454      -0.19144961
H        0.50088340       0.07267081      -1.89061598
H        0.92470585       0.97766826      -0.42266633
H       -0.57913410       1.35515550      -1.28838274
C       -1.22714815      -1.25566656       0.47428830
H       -1.74296168      -1.95254881       1.03331589
O        1.63054186       0.70199322       1.42536101
H        1.05268538       0.02287872       1.83602368
9
Properties=species:S:1:pos:R:3 energy=-723.1487771653639 pbc="F F F"
C        0.07494946       0.52183925      -0.97589268
C       -0.63451786      -0.44397590      -0.19145454
H        0.50087264       0.07267131      -1.89063524
H        0.92470409       0.97768014      -0.42269477
H       -0.57914443       1.35515548      -1.28840222
C       -1.22713080      -1.25565528       0.47429536
H       -1.74293661      -1.95253552       1.03333247
O        1.63053183       0.70196768       1.42539726
H        1.05267168       0.02285285       1.83605436
9
Properties=species:S:1:pos:R:3 energy=-723.1487730812405 pbc="F F F"
C        0.07494610       0.52184510      -0.97591112
C       -0.63451034      -0.44396725      -0.19145947
H        0.50086188       0.07267181      -1.89065451
H        0.92470233       0.97769202      -0.42272322
H       -0.57915477       1.35515546      -1.28842171
C       -1.22711345      -1.25564401       0.47430242
H       -1.74291153      -1.95252222       1.03334905
O        1.63052180       0.70194214       1.42543350
H        1.05265798       0.02282696       1.83608505
9
Properties=species:S:1:pos:R:3 energy=-723.1487689965296 pbc="F F F"
C        0.07494274       0.52185094      -0.97592957
C       -0.63450281      -0.44395861      -0.19146440
H        0.50085111       0.07267230      -1.89067378
H        0.92470058       0.97770391      -0.42275167
H       -0.57916511       1.35515544      -1.28844120
C       -1.22709609      -1.25563273       0.47430948
H       -1.74288645      -1.95250892       1.03336563
O        1.63051175       0.70191658       1.42546974
H        1.05264427       0.02280107       1.83611576
9
Properties=species:S:1:pos:R:3 energy=-723.148764911145 pbc="F F F"
C        0.07493938       0.52185680      -0.97594802
C       -0.63449529      -0.44394996      -0.19146933
H        0.50084035       0.07267280      -1.89069305
H        0.92469882       0.97771580      -0.42278013
H       -0.57917545       1.35515542      -1.28846069
C       -1.22707873      -1.25562144       0.47431655
H       -1.74286136      -1.95249562       1.03338222
O        1.63050170       0.70189102       1.42550597
H        1.05263057       0.02277518       1.83614648
9
Properties=species:S:1:pos:R:3 energy=-723.148760825124 pbc="F F F"
C        0.07493603       0.52186265      -0.97596647
C       -0.63448776      -0.44394131      -0.19147427
H        0.50082958       0.07267330      -1.89071232
H        0.92469706       0.97772770      -0.42280860
H       -0.57918579       1.35515540      -1.28848019
C       -1.22706136      -1.25561016       0.47432361
H       -1.74283626      -1.95248231       1.03339881
O        1.63049163       0.70186546       1.42554221
H        1.05261687       0.02274927       1.83617722
9
Properties=species:S:1:pos:R:3 energy=-723.1487567384313 pbc="F F F"
C        0.07493267       0.52186850      -0.97598493
C       -0.63448023      -0.44393265      -0.19147920
H        0.50081881       0.07267380      -1.89073160
H        0.92469531       0.97773960      -0.42283707
H       -0.57919613       1.35515538      -1.28849968
C       -1.22704399      -1.25559887       0.47433068
H       -1.74281116      -1.95246900       1.03341540
O        1.63048156       0.70183988       1.42557844
H        1.05260316       0.02272337       1.83620796
9
Properties=species:S:1:pos:R:3 energy=-723.1487526510889 pbc="F F F"
C        0.07492931       0.52187436      -0.97600339
C       -0.63447269      -0.44392400      -0.19148413
H        0.50080805       0.07267429      -1.89075089
H        0.92469355       0.97775150      -0.42286554
H       -0.57920647       1.35515536      -1.28851919
C       -1.22702662      -1.25558758       0.47433775
H       -1.74278606      -1.95245569       1.03343200
O        1.63047147       0.70181430       1.42561467
H        1.05258946       0.02269745       1.83623872
9
Properties=species:S:1:pos:R:3 energy=-723.1487485630942 pbc="F F F"
C        0.07492595       0.52188021      -0.97602186
C       -0.63446515      -0.44391534      -0.19148907
H        0.50079728       0.07267479      -1.89077017
H        0.92469180       0.97776341      -0.42289403
H       -0.57921682       1.35515534      -1.28853869
C       -1.22700924      -1.25557629       0.47434482
H       -1.74276095      -1.95244237       1.03344860
O        1.63046138       0.70178871       1.42565090
H        1.05257576       0.02267153       1.83626949
9
Properties=species:S:1:pos:R:3 energy=-723.1487444744323 pbc="F F F"
C        0.07492259       0.52188607      -0.97604032
C       -0.63445762      -0.44390668      -0.19149400
H        0.50078650       0.07267529      -1.89078946
H        0.92469005       0.97777531      -0.42292251
H       -0.57922717       1.35515533      -1.28855820
C       -1.22699186      -1.25556499       0.47435189
H       -1.74273583      -1.95242905       1.03346520
O        1.63045128       0.70176311       1.42568713
H        1.05256205       0.02264560       1.83630028
9
Properties=species:S:1:pos:R:3 energy=-723.1487403851302 pbc="F F F"
C        0.07491923       0.52189193      -0.97605880
C       -0.63445008      -0.44389802      -0.19149894
H        0.50077573       0.07267579      -1.89080875
H        0.92468829       0.97778723      -0.42295101
H       -0.57923752       1.35515531      -1.28857771
C       -1.22697447      -1.25555369       0.47435896
H       -1.74271071      -1.95241573       1.03348181
O        1.63044116       0.70173751       1.42572336
H        1.05254835       0.02261967       1.83633108
9
Properties=species:S:1:pos:R:3 energy=-723.1487362951648 pbc="F F F"
C        0.07491587       0.52189779      -0.97607727
C       -0.63444253      -0.44388935      -0.19150388
H        0.50076496       0.07267629      -1.89082804
H        0.92468654       0.97779914      -0.42297951
H       -0.57924787       1.35515529      -1.28859722
C       -1.22695708      -1.25554239       0.47436603
H       -1.74268558      -1.95240240       1.03349842
O        1.63043104       0.70171190       1.42575958
H        1.05253464       0.02259373       1.83636189
9
Properties=species:S:1:pos:R:3 energy=-723.1487322045415 pbc="F F F"
C        0.07491251       0.52190365      -0.97609575
C       -0.63443499      -0.44388069      -0.19150881
H        0.50075418       0.07267679      -1.89084734
H        0.92468479       0.97781106      -0.42300802
H       -0.57925822       1.35515528      -1.28861674
C       -1.22693969      -1.25553108       0.47437311
H       -1.74266044      -1.95238907       1.03351503
O        1.63042091       0.70168628       1.42579580
H        1.05252094       0.02256779       1.83639271
9
Properties=species:S:1:pos:R:3 energy=-723.1487281132728 pbc="F F F"
C        0.07490915       0.52190951      -0.97611423
C       -0.63442744      -0.44387202      -0.19151375
H        0.50074341       0.07267729      -1.89086664
H        0.92468304       0.97782298      -0.42303653
H       -0.57926857       1.35515526      -1.28863626
C       -1.22692229      -1.25551978       0.47438019
H       -1.74263530      -1.95237574       1.03353165
O        1.63041077       0.70166065       1.42583202
H        1.05250724       0.02254184       1.83642355
9
Properties=species:S:1:pos:R:3 energy=-723.148724021329 pbc="F F F"
C        0.07490579       0.52191538      -0.97613271
C       -0.63441989      -0.44386335      -0.19151869
H        0.50073263       0.07267779      -1.89088595
H        0.92468129       0.97783491      -0.42306505
H       -0.57927892       1.35515525      -1.28865578
C       -1.22690489      -1.25550847       0.47438726
H       -1.74261016      -1.95236240       1.03354827
O        1.63040061       0.70163502       1.42586824
H        1.05249353       0.02251588       1.83645440
9
Properties=species:S:1:pos:R:3 energy=-723.1487199287535 pbc="F F F"
C        0.07490243       0.52192124      -0.97615120
C       -0.63441234      -0.44385467      -0.19152362
H        0.50072185       0.07267829      -1.89090525
H        0.92467954       0.97784684      -0.42309357
H       -0.57928928       1.35515523      -1.28867531
C       -1.22688748      -1.25549715       0.47439434
H       -1.74258501      -1.95234906       1.03356489
O        1.63039045       0.70160938       1.42590446
H        1.05247983       0.02248991       1.83648527
9
Properties=species:S:1:pos:R:3 energy=-723.1487158355151 pbc="F F F"
C        0.07489907       0.52192711      -0.97616969
C       -0.63440478      -0.44384600      -0.19152856
H        0.50071107       0.07267879      -1.89092456
H        0.92467779       0.97785877      -0.42312210
H       -0.57929964       1.35515522      -1.28869484
C       -1.22687007      -1.25548584       0.47440143
H       -1.74255985      -1.95233572       1.03358152
O        1.63038028       0.70158373       1.42594067
H        1.05246613       0.02246394       1.83651614
9
Properties=species:S:1:pos:R:3 energy=-723.148711741595 pbc="F F F"
C        0.07489571       0.52193298      -0.97618819
C       -0.63439723      -0.44383732      -0.19153350
H        0.50070029       0.07267929      -1.89094388
H        0.92467605       0.97787071      -0.42315064
H       -0.57931000       1.35515520      -1.28871437
C       -1.22685265      -1.25547452       0.47440851
H       -1.74253469      -1.95232237       1.03359815
O        1.63037010       0.70155808       1.42597689
H        1.05245242       0.02243797       1.83654703
9
Properties=species:S:1:pos:R:3 energy=-723.1487076470347 pbc="F F F"
C        0.07489235       0.52193884      -0.97620669
C       -0.63438967      -0.44382864      -0.19153844
H        0.50068951       0.07267979      -1.89096319
H        0.92467430       0.97788265      -0.42317918
H       -0.57932036       1.35515519      -1.28873391
C       -1.22683524      -1.25546320       0.47441559
H       -1.74250952      -1.95230903       1.03361478
O        1.63035991       0.70153242       1.42601310
H        1.05243872       0.02241199       1.83657794
9
Properties=species:S:1:pos:R:3 energy=-723.148703551825 pbc="F F F"
C        0.07488899       0.52194472      -0.97622519
C       -0.63438211      -0.44381996      -0.19154338
H        0.50067872       0.07268029      -1.89098251
H        0.92467255       0.97789459      -0.42320773
H       -0.57933072       1.35515517      -1.28875345
C       -1.22681781      -1.25545187       0.47442268
H       -1.74248434      -1.95229567       1.03363142
O        1.63034971       0.70150675       1.42604931
H        1.05242501       0.02238600       1.83660885
9
Properties=species:S:1:pos:R:3 energy=-723.148699455949 pbc="F F F"
C        0.07488563       0.52195059      -0.97624369
C       -0.63437454      -0.44381128      -0.19154832
H        0.50066794       0.07268079      -1.89100184
H        0.92467081       0.97790653      -0.42323628
H       -0.57934108       1.35515516      -1.28877299
C       -1.22680038      -1.25544055       0.47442977
H       -1.74245916      -1.95228232       1.03364806
O        1.63033950       0.70148107       1.42608551
H        1.05241131       0.02236000       1.83663978
9
Properties=species:S:1:pos:R:3 energy=-723.1486953593784 pbc="F F F"
C        0.07488226       0.52195646      -0.97626220
C       -0.63436698      -0.44380259      -0.19155326
H        0.50065715       0.07268129      -1.89102116
H        0.92466906       0.97791848      -0.42326484
H       -0.57935145       1.35515515      -1.28879253
C       -1.22678295      -1.25542922       0.47443686
H       -1.74243398      -1.95226896       1.03366470
O        1.63032928       0.70145538       1.42612172
H        1.05239761       0.02233400       1.83667073
9
Properties=species:S:1:pos:R:3 energy=-723.1486912621959 pbc="F F F"
C        0.07487890       0.52196234      -0.97628071
C       -0.63435941      -0.44379390      -0.19155821
H        0.50064636       0.07268179      -1.89104049
H        0.92466732       0.97793044      -0.42329341
H       -0.57936181       1.35515513      -1.28881208
C       -1.22676552      -1.25541788       0.47444395
H       -1.74240879      -1.95225560       1.03368134
O        1.63031905       0.70142969       1.42615792
H        1.05238390       0.02230799       1.83670168
9
Properties=species:S:1:pos:R:3 energy=-723.148687164316 pbc="F F F"
C        0.07487554       0.52196821      -0.97629923
C       -0.63435184      -0.44378521      -0.19156315
H        0.50063557       0.07268229      -1.89105982
H        0.92466557       0.97794239      -0.42332198
H       -0.57937218       1.35515512      -1.28883163
C       -1.22674808      -1.25540655       0.47445104
H       -1.74238359      -1.95224223       1.03369799
O        1.63030881       0.70140399       1.42619412
H        1.05237020       0.02228198       1.83673265
9
Properties=species:S:1:pos:R:3 energy=-723.1486830658047 pbc="F F F"
C        0.07487217       0.52197409      -0.97631774
C       -0.63434427      -0.44377652      -0.19156809
H        0.50062478       0.07268280      -1.89107916
H        0.92466383       0.97795435      -0.42335056
H       -0.57938255       1.35515511      -1.28885118
C       -1.22673063      -1.25539521       0.47445813
H       -1.74235839      -1.95222886       1.03371465
O        1.63029856       0.70137829       1.42623032
H        1.05235649       0.02225596       1.83676363
9
Properties=species:S:1:pos:R:3 energy=-723.1486789666247 pbc="F F F"
C        0.07486881       0.52197997      -0.97633627
C       -0.63433669      -0.44376783      -0.19157303
H        0.50061399       0.07268330      -1.89109850
H        0.92466209       0.97796631      -0.42337914
H       -0.57939292       1.35515510      -1.28887074
C       -1.22671318      -1.25538387       0.47446523
H       -1.74233318      -1.95221549       1.03373130
O        1.63028830       0.70135257       1.42626652
H        1.05234279       0.02222994       1.83679463
9
Properties=species:S:1:pos:R:3 energy=-723.1486748667821 pbc="F F F"
C        0.07486545       0.52198585      -0.97635479
C       -0.63432911      -0.44375913      -0.19157798
H        0.50060319       0.07268380      -1.89111784
H        0.92466034       0.97797828      -0.42340773
H       -0.57940329       1.35515509      -1.28889030
C       -1.22669573      -1.25537253       0.47447233
H       -1.74230797      -1.95220211       1.03374796
O        1.63027803       0.70132685       1.42630271
H        1.05232909       0.02220390       1.83682564
9
Properties=species:S:1:pos:R:3 energy=-723.1486707662485 pbc="F F F"
C        0.07486208       0.52199173      -0.97637332
C       -0.63432154      -0.44375043      -0.19158292
H        0.50059240       0.07268430      -1.89113718
H        0.92465860       0.97799025      -0.42343633
H       -0.57941366       1.35515508      -1.28890986
C       -1.22667827      -1.25536118       0.47447943
H       -1.74228275      -1.95218874       1.03376462
O        1.63026775       0.70130112       1.42633891
H        1.05231538       0.02217787       1.83685666
9
Properties=species:S:1:pos:R:3 energy=-723.1486666650869 pbc="F F F"
C        0.07485872       0.52199761      -0.97639185
C       -0.63431395      -0.44374173      -0.19158787
H        0.50058160       0.07268480      -1.89115653
H        0.92465686       0.97800222      -0.42346493
H       -0.57942404       1.35515507      -1.28892943
C       -1.22666081      -1.25534983       0.47448653
H       -1.74225752      -1.95217535       1.03378129
O        1.63025746       0.70127539       1.42637510
H        1.05230168       0.02215182       1.83688770
9
Properties=species:S:1:pos:R:3 energy=-723.1486625632589 pbc="F F F"
C        0.07485535       0.52200350      -0.97641038
C       -0.63430637      -0.44373303      -0.19159281
H        0.50057080       0.07268531      -1.89117588
H        0.92465512       0.97801420      -0.42349354
H       -0.57943441       1.35515506      -1.28894900
C       -1.22664335      -1.25533848       0.47449363
H       -1.74223229      -1.95216197       1.03379796
O        1.63024716       0.70124965       1.42641129
H        1.05228798       0.02212577       1.83691875
9
Properties=species:S:1:pos:R:3 energy=-723.1486584607436 pbc="F F F"
C        0.07485199       0.52200938      -0.97642892
C       -0.63429878      -0.44372432      -0.19159776
H        0.50056001       0.07268581      -1.89119524
H        0.92465338       0.97802618      -0.42352215
H       -0.57944479       1.35515505      -1.28896857
C       -1.22662588      -1.25532713       0.47450073
H       -1.74220705      -1.95214858       1.03381463
O        1.63023685       0.70122390       1.42644748
H        1.05227427       0.02209972       1.83694981
9
Properties=species:S:1:pos:R:3 energy=-723.1486543575819 pbc="F F F"
C        0.07484862       0.52201527      -0.97644746
C       -0.63429120      -0.44371562      -0.19160270
H        0.50054921       0.07268631      -1.89121460
H        0.92465165       0.97803816      -0.42355077
H       -0.57945517       1.35515504      -1.28898815
C       -1.22660840      -1.25531577       0.47450784
H       -1.74218181      -1.95213519       1.03383130
O        1.63022654       0.70119814       1.42648366
H        1.05226057       0.02207365       1.83698088
9
Properties=species:S:1:pos:R:3 energy=-723.1486502537397 pbc="F F F"
C        0.07484526       0.52202116      -0.97646601
C       -0.63428360      -0.44370691      -0.19160765
H        0.50053840       0.07268682      -1.89123396
H        0.92464991       0.97805015      -0.42357940
H       -0.57946555       1.35515503      -1.28900773
C       -1.22659093      -1.25530441       0.47451494
H       -1.74215656      -1.95212179       1.03384798
O        1.63021621       0.70117237       1.42651985
H        1.05224687       0.02204758       1.83701197
9
Properties=species:S:1:pos:R:3 energy=-723.1486461492586 pbc="F F F"
C        0.07484189       0.52202705      -0.97648456
C       -0.63427601      -0.44369819      -0.19161260
H        0.50052760       0.07268732      -1.89125332
H        0.92464817       0.97806214      -0.42360803
H       -0.57947594       1.35515502      -1.28902731
C       -1.22657345      -1.25529305       0.47452205
H       -1.74213131      -1.95210839       1.03386467
O        1.63020587       0.70114660       1.42655603
H        1.05223316       0.02202151       1.83704308
9
Properties=species:S:1:pos:R:3 energy=-723.1486420440934 pbc="F F F"
C        0.07483853       0.52203294      -0.97650311
C       -0.63426842      -0.44368948      -0.19161755
H        0.50051680       0.07268782      -1.89127269
H        0.92464643       0.97807413      -0.42363667
H       -0.57948632       1.35515501      -1.28904689
C       -1.22655596      -1.25528168       0.47452916
H       -1.74210605      -1.95209499       1.03388135
O        1.63019552       0.70112082       1.42659221
H        1.05221946       0.02199543       1.83707419
9
Properties=species:S:1:pos:R:3 energy=-723.1486379382429 pbc="F F F"
C        0.07483516       0.52203883      -0.97652167
C       -0.63426082      -0.44368076      -0.19162250
H        0.50050599       0.07268833      -1.89129206
H        0.92464470       0.97808613      -0.42366531
H       -0.57949670       1.35515500      -1.28906648
C       -1.22653847      -1.25527031       0.47453627
H       -1.74208078      -1.95208159       1.03389804
O        1.63018517       0.70109503       1.42662839
H        1.05220576       0.02196934       1.83710532
9
Properties=species:S:1:pos:R:3 energy=-723.1486338317321 pbc="F F F"
C        0.07483179       0.52204472      -0.97654022
C       -0.63425322      -0.44367205      -0.19162744
H        0.50049518       0.07268883      -1.89131143
H        0.92464296       0.97809813      -0.42369396
H       -0.57950709       1.35515500      -1.28908607
C       -1.22652097      -1.25525894       0.47454338
H       -1.74205551      -1.95206818       1.03391473
O        1.63017480       0.70106924       1.42666456
H        1.05219205       0.02194324       1.83713646
9
Properties=species:S:1:pos:R:3 energy=-723.1486297246125 pbc="F F F"
C        0.07482843       0.52205062      -0.97655879
C       -0.63424562      -0.44366333      -0.19163239
H        0.50048438       0.07268934      -1.89133081
H        0.92464123       0.97811013      -0.42372262
H       -0.57951748       1.35515499      -1.28910567
C       -1.22650348      -1.25524757       0.47455050
H       -1.74203023      -1.95205477       1.03393143