9
Properties=species:S:1:pos:R:3 energy=-723.0867246886936 pbc="F F F"
C       -6.48778688       2.00295671      -1.30138865
C       -7.05960808       1.06322580      -0.33580586
H       -5.63481105       1.53931513      -1.80667101
H       -6.11721686       2.89382602      -0.78618992
H       -7.23422256       2.29774040      -2.04698947
C       -7.63595863       0.28395399       0.39399485
H       -8.12035873      -0.41375381       1.03074808
O       -5.11724723       0.95537217       0.84827209
H       -5.55613096       1.31041159       1.68864689
