2
Properties=species:S:1:pos:R:3 energy=-2058.597950073036 pbc="F F F"
O        1.04878400      -0.01949200       0.07933600
H        2.06655700      -0.01949200       0.07933600
