 Entering Gaussian System, Link 0=g09
 Initial command:
 /apps/applications/gaussian/G09.D01/2/default/g09/l1.exe "/nobackup/chmrsh/Scratch/Gau-128652.inp" -scrdir="/nobackup/chmrsh/Scratch/"
 Entering Link 1 = /apps/applications/gaussian/G09.D01/2/default/g09/l1.exe PID=    128653.
  
 Copyright (c) 1988,1990,1992,1993,1995,1998,2003,2009,2013,
            Gaussian, Inc.  All Rights Reserved.
  
 This is part of the Gaussian(R) 09 program.  It is based on
 the Gaussian(R) 03 system (copyright 2003, Gaussian, Inc.),
 the Gaussian(R) 98 system (copyright 1998, Gaussian, Inc.),
 the Gaussian(R) 94 system (copyright 1995, Gaussian, Inc.),
 the Gaussian 92(TM) system (copyright 1992, Gaussian, Inc.),
 the Gaussian 90(TM) system (copyright 1990, Gaussian, Inc.),
 the Gaussian 88(TM) system (copyright 1988, Gaussian, Inc.),
 the Gaussian 86(TM) system (copyright 1986, Carnegie Mellon
 University), and the Gaussian 82(TM) system (copyright 1983,
 Carnegie Mellon University). Gaussian is a federally registered
 trademark of Gaussian, Inc.
  
 This software contains proprietary and confidential information,
 including trade secrets, belonging to Gaussian, Inc.
  
 This software is provided under written license and may be
 used, copied, transmitted, or stored only in accord with that
 written license.
  
 The following legend is applicable only to US Government
 contracts under FAR:
  
                    RESTRICTED RIGHTS LEGEND
  
 Use, reproduction and disclosure by the US Government is
 subject to restrictions as set forth in subparagraphs (a)
 and (c) of the Commercial Computer Software - Restricted
 Rights clause in FAR 52.227-19.
  
 Gaussian, Inc.
 340 Quinnipiac St., Bldg. 40, Wallingford CT 06492
  
  
 ---------------------------------------------------------------
 Warning -- This program may not be used in any manner that
 competes with the business of Gaussian, Inc. or will provide
 assistance to any competitor of Gaussian, Inc.  The licensee
 of this program is prohibited from giving any competitor of
 Gaussian, Inc. access to this program.  By using this program,
 the user acknowledges that Gaussian, Inc. is engaged in the
 business of creating and licensing software in the field of
 computational chemistry and represents and warrants to the
 licensee that it is not a competitor of Gaussian, Inc. and that
 it will not use this program in any manner prohibited above.
 ---------------------------------------------------------------
  

 Cite this work as:
 Gaussian 09, Revision D.01,
 M. J. Frisch, G. W. Trucks, H. B. Schlegel, G. E. Scuseria, 
 M. A. Robb, J. R. Cheeseman, G. Scalmani, V. Barone, B. Mennucci, 
 G. A. Petersson, H. Nakatsuji, M. Caricato, X. Li, H. P. Hratchian, 
 A. F. Izmaylov, J. Bloino, G. Zheng, J. L. Sonnenberg, M. Hada, 
 M. Ehara, K. Toyota, R. Fukuda, J. Hasegawa, M. Ishida, T. Nakajima, 
 Y. Honda, O. Kitao, H. Nakai, T. Vreven, J. A. Montgomery, Jr., 
 J. E. Peralta, F. Ogliaro, M. Bearpark, J. J. Heyd, E. Brothers, 
 K. N. Kudin, V. N. Staroverov, T. Keith, R. Kobayashi, J. Normand, 
 K. Raghavachari, A. Rendell, J. C. Burant, S. S. Iyengar, J. Tomasi, 
 M. Cossi, N. Rega, J. M. Millam, M. Klene, J. E. Knox, J. B. Cross, 
 V. Bakken, C. Adamo, J. Jaramillo, R. Gomperts, R. E. Stratmann, 
 O. Yazyev, A. J. Austin, R. Cammi, C. Pomelli, J. W. Ochterski, 
 R. L. Martin, K. Morokuma, V. G. Zakrzewski, G. A. Voth, 
 P. Salvador, J. J. Dannenberg, S. Dapprich, A. D. Daniels, 
 O. Farkas, J. B. Foresman, J. V. Ortiz, J. Cioslowski, 
 and D. J. Fox, Gaussian, Inc., Wallingford CT, 2013.
 
 ******************************************
 Gaussian 09:  ES64L-G09RevD.01 24-Apr-2013
                 6-Jan-2021 
 ******************************************
 ----------------------------------------------------------------------
 #P b3lyp/3-21G scf=qc opt(calcall, ts, noeigentest, cartesian,maxcycle
 =100) NoSymm
 ----------------------------------------------------------------------
 1/5=1,6=100,10=4,11=1,14=-1,18=10,26=3,38=1/1,3;
 2/12=2,15=1,17=6,18=5,29=2,40=1/2;
 3/5=5,11=2,16=1,25=1,30=1,71=2,74=-5,140=1/1,2,3;
 4//1;
 5/5=2,8=3,38=5/8;
 8/6=4,10=90,11=11/1;
 11/6=1,8=1,9=11,15=111,16=1,31=1/1,2,10;
 10/6=1,31=1/2;
 6/7=2,8=2,9=2,10=2,18=1,28=1/1;
 7/7=1,10=1,25=1,30=1/1,2,3,16;
 1/5=1,6=100,10=4,11=1,14=-1,18=10,26=3/3(3);
 2/15=1,29=1/2;
 7/7=1,8=1,9=1,25=1,30=1,44=-1/16;
 99/12=1/99;
 2/15=1,29=1/2;
 3/5=5,11=2,16=1,25=1,30=1,71=2,74=-5,140=1/1,2,3;
 4/5=5,16=3,69=1/1;
 5/5=2,8=3,38=5/8;
 8/6=4,10=90,11=11/1;
 11/6=1,8=1,9=11,15=111,16=1,31=1/1,2,10;
 10/6=1,31=1/2;
 7/7=1,10=1,25=1,30=1/1,2,3,16;
 1/5=1,6=100,10=4,11=1,14=-1,18=10,26=3/3(-8);
 2/15=1,29=1/2;
 6/7=2,8=2,9=2,10=2,18=1,19=2,28=1/1;
 7/7=1,8=1,9=1,25=1,30=1,44=-1/16;
 99/12=1/99;
 Leave Link    1 at Wed Jan  6 16:08:05 2021, MaxMem=           0 cpu:         0.1
 (Enter /apps/applications/gaussian/G09.D01/2/default/g09/l101.exe)
 ------------------------------
 Gaussian input prepared by ASE
 ------------------------------
 Symbolic Z-matrix:
 Charge =  0 Multiplicity = 2
 C                     0.74058  -0.52935  -0.85765 
 C                     0.25149   0.60761  -0.13528 
 H                     0.23505  -1.45974  -0.528 
 H                     1.82383  -0.67616  -0.70597 
 H                     0.56628  -0.43116  -1.943 
 C                    -0.1648    1.56025   0.47658 
 H                    -0.50805   2.38622   0.98911 
 O                    -1.29511  -1.1078    1.097 
 H                    -1.64928  -0.34987   1.60722 
 
 NAtoms=      9 NQM=        9 NQMF=       0 NMMI=      0 NMMIF=      0
                NMic=       0 NMicF=      0.
                    Isotopes and Nuclear Properties:
 (Nuclear quadrupole moments (NQMom) in fm**2, nuclear magnetic moments (NMagM)
  in nuclear magnetons)

  Atom         1           2           3           4           5           6           7           8           9
 IAtWgt=          12          12           1           1           1          12           1          16           1
 AtmWgt=  12.0000000  12.0000000   1.0078250   1.0078250   1.0078250  12.0000000   1.0078250  15.9949146   1.0078250
 NucSpn=           0           0           1           1           1           0           1           0           1
 AtZEff=   0.0000000   0.0000000   0.0000000   0.0000000   0.0000000   0.0000000   0.0000000   0.0000000   0.0000000
 NQMom=    0.0000000   0.0000000   0.0000000   0.0000000   0.0000000   0.0000000   0.0000000   0.0000000   0.0000000
 NMagM=    0.0000000   0.0000000   2.7928460   2.7928460   2.7928460   0.0000000   2.7928460   0.0000000   2.7928460
 AtZNuc=   6.0000000   6.0000000   1.0000000   1.0000000   1.0000000   6.0000000   1.0000000   8.0000000   1.0000000
 Leave Link  101 at Wed Jan  6 16:08:05 2021, MaxMem=    33554432 cpu:         0.2
 (Enter /apps/applications/gaussian/G09.D01/2/default/g09/l103.exe)

 GradGradGradGradGradGradGradGradGradGradGradGradGradGradGradGradGradGrad
 Berny optimization.
 Initialization pass.
 No Z-matrix variables, so optimization will use Cartesian coordinates.
 Trust Radius=3.00D-01 FncErr=1.00D-07 GrdErr=1.00D-06
 Number of steps in this run=    100 maximum allowed number of steps=    100.
 Search for a saddle point of order  1.
 GradGradGradGradGradGradGradGradGradGradGradGradGradGradGradGradGradGrad

 Leave Link  103 at Wed Jan  6 16:08:05 2021, MaxMem=    33554432 cpu:         0.0
 (Enter /apps/applications/gaussian/G09.D01/2/default/g09/l202.exe)
 ---------------------------------------------------------------------------------------------------
                            Z-MATRIX (ANGSTROMS AND DEGREES)
   CD    Cent   Atom    N1       Length/X        N2       Alpha/Y        N3        Beta/Z          J
 ---------------------------------------------------------------------------------------------------
      1      1  C        0   0.740579         -0.529348         -0.857654
      2      2  C        0   0.251494          0.607610         -0.135285
      3      3  H        0   0.235046         -1.459740         -0.528004
      4      4  H        0   1.823829         -0.676159         -0.705967
      5      5  H        0   0.566281         -0.431165         -1.942999
      6      6  C        0  -0.164795          1.560250          0.476578
      7      7  H        0  -0.508048          2.386220          0.989105
      8      8  O        0  -1.295109         -1.107798          1.097004
      9      9  H        0  -1.649277         -0.349870          1.607221
 ---------------------------------------------------------------------------------------------------
                         Z-Matrix orientation:                         
 ---------------------------------------------------------------------
 Center     Atomic      Atomic             Coordinates (Angstroms)
 Number     Number       Type             X           Y           Z
 ---------------------------------------------------------------------
      1          6           0        0.740579   -0.529348   -0.857654
      2          6           0        0.251494    0.607610   -0.135285
      3          1           0        0.235046   -1.459740   -0.528004
      4          1           0        1.823829   -0.676159   -0.705967
      5          1           0        0.566281   -0.431165   -1.942999
      6          6           0       -0.164795    1.560250    0.476578
      7          1           0       -0.508048    2.386220    0.989105
      8          8           0       -1.295109   -1.107798    1.097004
      9          1           0       -1.649277   -0.349870    1.607221
 ---------------------------------------------------------------------
                    Distance matrix (angstroms):
                    1          2          3          4          5
     1  C    0.000000
     2  C    1.433072   0.000000
     3  H    1.108992   2.104385   0.000000
     4  H    1.103627   2.108549   1.780422   0.000000
     5  H    1.103627   2.108548   1.780421   1.780926   0.000000
     6  C    2.639374   1.206315   3.207709   3.217851   3.217850
     7  H    3.670166   2.237098   4.200621   4.205839   4.205838
     8  O    2.880854   2.617851   2.259621   3.628331   3.628254
     9  H    3.437911   2.750641   3.056414   4.185662   4.185614
                    6          7          8          9
     6  C    0.000000
     7  H    1.030889   0.000000
     8  O    2.963278   3.583192   0.000000
     9  H    2.670318   3.028310   0.979903   0.000000
 Symmetry turned off by external request.
 Stoichiometry    C3H5O(2)
 Framework group  C1[X(C3H5O)]
 Deg. of freedom    21
 Full point group                 C1      NOp   1
 Rotational constants (GHZ):      8.5687890      5.9876023      3.6050407
 Leave Link  202 at Wed Jan  6 16:08:05 2021, MaxMem=    33554432 cpu:         0.0
 (Enter /apps/applications/gaussian/G09.D01/2/default/g09/l301.exe)
 Standard basis: 3-21G (6D, 7F)
 Ernie: Thresh=  0.10000D-02 Tol=  0.10000D-05 Strict=F.
    46 basis functions,    75 primitive gaussians,    46 cartesian basis functions
    16 alpha electrons       15 beta electrons
       nuclear repulsion energy        99.7053176117 Hartrees.
 IExCor=  402 DFT=T Ex+Corr=B3LYP ExCW=0 ScaHFX=  0.200000
 ScaDFX=  0.800000  0.720000  1.000000  0.810000 ScalE2=  1.000000  1.000000
 IRadAn=      0 IRanWt=     -1 IRanGd=            0 ICorTp=0 IEmpDi=  4
 NAtoms=    9 NActive=    9 NUniq=    9 SFac= 1.00D+00 NAtFMM=   60 NAOKFM=F Big=F
 Integral buffers will be    131072 words long.
 Raffenetti 2 integral format.
 Two-electron integral symmetry is turned off.
 Leave Link  301 at Wed Jan  6 16:08:05 2021, MaxMem=    33554432 cpu:         0.1
 (Enter /apps/applications/gaussian/G09.D01/2/default/g09/l302.exe)
 NPDir=0 NMtPBC=     1 NCelOv=     1 NCel=       1 NClECP=     1 NCelD=      1
         NCelK=      1 NCelE2=     1 NClLst=     1 CellRange=     0.0.
 One-electron integrals computed using PRISM.
 NBasis=    46 RedAO= T EigKep=  1.19D-03  NBF=    46
 NBsUse=    46 1.00D-06 EigRej= -1.00D+00 NBFU=    46
 Precomputing XC quadrature grid using
 IXCGrd= 4 IRadAn=           0 IRanWt=          -1 IRanGd=           0 AccXCQ= 0.00D+00.
 Generated NRdTot=       0 NPtTot=           0 NUsed=           0 NTot=          32
 NSgBfM=    46    46    46    46    46 MxSgAt=     9 MxSgA2=     9.
 Leave Link  302 at Wed Jan  6 16:08:05 2021, MaxMem=    33554432 cpu:         0.2
 (Enter /apps/applications/gaussian/G09.D01/2/default/g09/l303.exe)
 DipDrv:  MaxL=1.
 Leave Link  303 at Wed Jan  6 16:08:05 2021, MaxMem=    33554432 cpu:         0.1
 (Enter /apps/applications/gaussian/G09.D01/2/default/g09/l401.exe)
 ExpMin= 1.83D-01 ExpMax= 3.22D+02 ExpMxC= 3.22D+02 IAcc=1 IRadAn=         1 AccDes= 0.00D+00
 Harris functional with IExCor=  402 and IRadAn=       1 diagonalized for initial guess.
 HarFok:  IExCor=  402 AccDes= 0.00D+00 IRadAn=         1 IDoV= 1 UseB2=F ITyADJ=14
 ICtDFT=  3500011 ScaDFX=  1.000000  1.000000  1.000000  1.000000
 FoFCou: FMM=F IPFlag=           0 FMFlag=      100000 FMFlg1=           0
         NFxFlg=           0 DoJE=T BraDBF=F KetDBF=T FulRan=T
         wScrn=  0.000000 ICntrl=     500 IOpCl=  0 I1Cent=   200000004 NGrid=           0
         NMat0=    1 NMatS0=      1 NMatT0=    0 NMatD0=    1 NMtDS0=    0 NMtDT0=    0
 Symmetry not used in FoFCou.
 Harris En= -191.326091681610    
 JPrj=0 DoOrth=F DoCkMO=F.
 Initial guess <Sx>= 0.0000 <Sy>= 0.0000 <Sz>= 0.5000 <S**2>= 0.7500 S= 0.5000
 Leave Link  401 at Wed Jan  6 16:08:06 2021, MaxMem=    33554432 cpu:         0.3
 (Enter /apps/applications/gaussian/G09.D01/2/default/g09/l508.exe)
 Direct SCF.
 Tight linear equation convergence will be used.
 UB3LYP wavefunction.
 Quadratic Convergence SCF Method.
 Line search only if initial step raises energy.
 Two-electron integral symmetry not used.
 ReadGW:  IGet=1 IStart=         402 Next=         402 LGW=           0.
 Keep R1 and R2 ints in memory in canonical form, NReq=2054730.
 FoFCou: FMM=F IPFlag=           0 FMFlag=           0 FMFlg1=           0
         NFxFlg=           0 DoJE=F BraDBF=F KetDBF=F FulRan=T
         wScrn=  0.000000 ICntrl=     600 IOpCl=  0 I1Cent=           0 NGrid=           0
         NMat0=    1 NMatS0=   1081 NMatT0=    0 NMatD0=    1 NMtDS0=    0 NMtDT0=    0
 Symmetry not used in FoFCou.
 Iteration   1 EE= -191.225519212647                                    Grad=4.351D-01 Max rot=    5.4206 deg.
 Gradient too large for Newton-Raphson -- use scaled steepest descent instead.
 Alpha Gap=     0.286 HL deriv= 4.00D-03
  Beta Gap=     0.117 HL deriv= 1.10D-05
     ILin= 1 X=0.000D+00 Y=-1.912255192126D+02 DE= 0.00D+00 F= -3.83D-01
     ILin= 2 X=3.000D-01 Y=-1.913052091568D+02 DE=-7.97D-02 F= -1.49D-01
     ILin= 3 X=4.000D-01 Y=-1.913162314777D+02 DE=-9.07D-02 F= -7.17D-02
     ILin= 4 X=6.000D-01 Y=-1.913152956117D+02 DE=-8.98D-02 F=  8.05D-02
     An  expanding polynomial of degree  4 produced  0.4937
 Iteration   2 EE= -191.319584677848     Delta-E=       -0.094065465201 Grad=1.189D-01 Max rot=    1.4965 deg.
 Gradient too large for Newton-Raphson -- use scaled steepest descent instead.
 Alpha Gap=     0.382 HL deriv= 1.09D-02
  Beta Gap=     0.145 HL deriv= 4.33D-06
     ILin= 1 X=0.000D+00 Y=-1.913195846778D+02 DE= 0.00D+00 F= -1.90D-02
     ILin= 2 X=4.000D-01 Y=-1.913249192707D+02 DE=-5.33D-03 F= -7.60D-03
     ILin= 3 X=7.000D-01 Y=-1.913259035362D+02 DE=-6.32D-03 F=  1.05D-03
     Accept linear search using points  2 and  3.
     An  expanding polynomial of degree  3 produced  0.5424
 Iteration   3 EE= -191.325710383805     Delta-E=       -0.006125705957 Grad=3.683D-02 Max rot=    0.7419 deg.
 Gradient too large for Newton-Raphson -- use scaled steepest descent instead.
 Alpha Gap=     0.363 HL deriv= 4.12D-04
  Beta Gap=     0.145 HL deriv= 6.55D-06
     ILin= 1 X=0.000D+00 Y=-1.913257103838D+02 DE= 0.00D+00 F= -3.26D-03
     ILin= 2 X=5.000D-01 Y=-1.913268885549D+02 DE=-1.18D-03 F= -1.47D-03
     ILin= 3 X=9.000D-01 Y=-1.913272036183D+02 DE=-1.49D-03 F= -1.14D-04
     ILin= 4 X=1.400D+00 Y=-1.913268539310D+02 DE=-1.14D-03 F=  1.50D-03
     An  expanding polynomial of degree  4 produced  0.9344
     Minimum is close to point  3 DX=  3.44D-02 DF= -1.95D-06 DXR=  3.68D-02 DFR=  1.31D-03 which will be used.
 Iteration   4 EE= -191.327203618346     Delta-E=       -0.001493234541 Grad=2.232D-02 Max rot=    0.3208 deg.
 Gradient too large for Newton-Raphson -- use scaled steepest descent instead.
 Alpha Gap=     0.382 HL deriv= 6.55D-03
  Beta Gap=     0.151 HL deriv= 6.92D-06
     ILin= 1 X=0.000D+00 Y=-1.913272036183D+02 DE= 0.00D+00 F= -1.10D-03
     ILin= 2 X=7.000D-01 Y=-1.913273273181D+02 DE=-1.24D-04 F=  7.46D-04
     Accept linear search using points  1 and  2.
     An  expanding polynomial of degree  2 produced  0.3873
 Iteration   5 EE= -191.327431716045     Delta-E=       -0.000228097700 Grad=8.402D-03 Max rot=    0.1561 deg.
 QCNR:  CnvC1=3.07D-09 CnvC2=3.07D-08
 LinEq1:  Iter=  0 NonCon=     1 RMS=5.99D-04 Max=1.55D-02 NDo=     1
 AX will form     1 AO Fock derivatives at one time.
 LinEq1:  Iter=  1 NonCon=     1 RMS=6.35D-04 Max=8.12D-03 NDo=     1
 LinEq1:  Iter=  2 NonCon=     1 RMS=1.59D-04 Max=1.34D-03 NDo=     1
 LinEq1:  Iter=  3 NonCon=     1 RMS=1.24D-04 Max=2.04D-03 NDo=     1
 LinEq1:  Iter=  4 NonCon=     1 RMS=2.89D-05 Max=3.52D-04 NDo=     1
 LinEq1:  Iter=  5 NonCon=     1 RMS=1.07D-05 Max=9.11D-05 NDo=     1
 LinEq1:  Iter=  6 NonCon=     1 RMS=7.24D-06 Max=7.26D-05 NDo=     1
 LinEq1:  Iter=  7 NonCon=     1 RMS=2.64D-06 Max=2.33D-05 NDo=     1
 LinEq1:  Iter=  8 NonCon=     1 RMS=6.76D-07 Max=1.55D-05 NDo=     1
 LinEq1:  Iter=  9 NonCon=     1 RMS=3.26D-07 Max=5.12D-06 NDo=     1
 LinEq1:  Iter= 10 NonCon=     1 RMS=1.79D-07 Max=1.42D-06 NDo=     1
 LinEq1:  Iter= 11 NonCon=     1 RMS=7.05D-08 Max=6.30D-07 NDo=     1
 LinEq1:  Iter= 12 NonCon=     1 RMS=1.89D-08 Max=1.65D-07 NDo=     1
 LinEq1:  Iter= 13 NonCon=     1 RMS=3.68D-09 Max=3.00D-08 NDo=     1
 LinEq1:  Iter= 14 NonCon=     0 RMS=7.74D-10 Max=7.07D-09 NDo=     1
 Linear equations converged to 3.074D-09 3.074D-08 after    14 iterations.
 Angle between quadratic step and gradient=  56.42 degrees.
     ILin= 1 X=0.000D+00 Y=-1.913274317160D+02 DE= 0.00D+00 F= -2.16D-04
     ILin= 2 X=1.000D+00 Y=-1.913275394508D+02 DE=-1.08D-04 F=  7.11D-07
     Accept linear search using points  1 and  2.
     An  expanding polynomial of degree  2 produced  0.9967
     Minimum is close to point  2 DX= -3.27D-03 DF= -1.16D-09 DXR=  3.28D-03 DFR=  1.08D-05 which will be used.
 Iteration   6 EE= -191.327539450773     Delta-E=       -0.000107734728 Grad=1.824D-04 Max rot=    0.0030 deg.
 QCNR:  CnvC1=1.82D-09 CnvC2=1.82D-08
 LinEq1:  Iter=  0 NonCon=     1 RMS=7.54D-06 Max=1.27D-04 NDo=     1
 LinEq1:  Iter=  1 NonCon=     1 RMS=2.53D-06 Max=3.49D-05 NDo=     1
 LinEq1:  Iter=  2 NonCon=     1 RMS=2.49D-06 Max=3.80D-05 NDo=     1
 LinEq1:  Iter=  3 NonCon=     1 RMS=1.41D-06 Max=1.51D-05 NDo=     1
 LinEq1:  Iter=  4 NonCon=     1 RMS=6.96D-07 Max=7.12D-06 NDo=     1
 LinEq1:  Iter=  5 NonCon=     1 RMS=3.27D-07 Max=3.61D-06 NDo=     1
 LinEq1:  Iter=  6 NonCon=     1 RMS=9.46D-08 Max=1.12D-06 NDo=     1
 LinEq1:  Iter=  7 NonCon=     1 RMS=2.90D-08 Max=3.79D-07 NDo=     1
 LinEq1:  Iter=  8 NonCon=     1 RMS=1.02D-08 Max=2.21D-07 NDo=     1
 LinEq1:  Iter=  9 NonCon=     1 RMS=6.49D-09 Max=9.76D-08 NDo=     1
 LinEq1:  Iter= 10 NonCon=     1 RMS=3.80D-09 Max=2.92D-08 NDo=     1
 LinEq1:  Iter= 11 NonCon=     0 RMS=9.70D-10 Max=8.20D-09 NDo=     1
 Linear equations converged to 1.824D-09 1.824D-08 after    11 iterations.
 Angle between quadratic step and gradient=  41.36 degrees.
     ILin= 1 X=0.000D+00 Y=-1.913275394508D+02 DE= 0.00D+00 F= -3.32D-08
     ILin= 2 X=1.000D+00 Y=-1.913275394674D+02 DE=-1.66D-08 F= -3.21D-12
     Reject lnstep minimum 1.000D+00 FVal=-1.913275394674D+02 Lims=  0.00D+00  1.00D+00
     ILin= 3 X=2.000D+00 Y=-1.913275394508D+02 DE=-6.37D-12 F=  3.32D-08
     An  expanding polynomial of degree  3 produced  1.0001
     Minimum is close to point  2 DX=  9.59D-05 DF=  0.00D+00 DXR=  9.59D-05 DFR=  0.00D+00 which will be used.
 Iteration   7 EE= -191.327539467377     Delta-E=       -0.000000016604 Grad=1.429D-07 Max rot=    0.0000 deg.
 Rotation gradient small -- convergence achieved.
 SCF Done:  E(UB3LYP) =  -191.327539467     a.u. after    7 cycles
            Convg  =    0.1429D-06                    41 Fock formations.
              S**2 =  0.7515                  -V/T =  2.0081
 <Sx>= 0.0000 <Sy>= 0.0000 <Sz>= 0.5000 <S**2>= 0.7515 S= 0.5007
 <L.S>= 0.000000000000E+00
 Annihilation of the first spin contaminant:
 S**2 before annihilation     0.7515,   after     0.7500
 Leave Link  508 at Wed Jan  6 16:08:34 2021, MaxMem=    33554432 cpu:        27.8
 (Enter /apps/applications/gaussian/G09.D01/2/default/g09/l801.exe)
 DoSCS=F DFT=T ScalE2(SS,OS)=  1.000000  1.000000
 Range of M.O.s used for correlation:     1    46
 NBasis=    46 NAE=    16 NBE=    15 NFC=     0 NFV=     0
 NROrb=     46 NOA=    16 NOB=    15 NVA=    30 NVB=    31

 **** Warning!!: The largest alpha MO coefficient is  0.12087181D+02


 **** Warning!!: The largest beta MO coefficient is  0.12164991D+02

 Leave Link  801 at Wed Jan  6 16:08:34 2021, MaxMem=    33554432 cpu:         0.0
 (Enter /apps/applications/gaussian/G09.D01/2/default/g09/l1101.exe)
 Using compressed storage, NAtomX=     9.
 Will process     10 centers per pass.
 Leave Link 1101 at Wed Jan  6 16:08:34 2021, MaxMem=    33554432 cpu:         0.1
 (Enter /apps/applications/gaussian/G09.D01/2/default/g09/l1102.exe)
 Symmetrizing basis deriv contribution to polar:
 IMax=3 JMax=2 DiffMx= 0.00D+00
 Leave Link 1102 at Wed Jan  6 16:08:34 2021, MaxMem=    33554432 cpu:         0.1
 (Enter /apps/applications/gaussian/G09.D01/2/default/g09/l1110.exe)
 Forming Gx(P) for the SCF density, NAtomX=     9.
 Integral derivatives from FoFJK, PRISM(SPDF).
 Do as many integral derivatives as possible in FoFJK.
 G2DrvN: MDV=      33554256.
 G2DrvN: will do    10 centers at a time, making    1 passes.
 Calling FoFCou, ICntrl=  3107 FMM=F I1Cent=   0 AccDes= 0.00D+00.
 FoFJK:  IHMeth= 1 ICntrl=    3107 DoSepK=F KAlg= 0 I1Cent=   0 FoldK=F
 IRaf=         0 NMat=   1 IRICut=       1 DoRegI=T DoRafI=F ISym2E= 0.
 FoFCou: FMM=F IPFlag=           0 FMFlag=      100000 FMFlg1=           0
         NFxFlg=           0 DoJE=F BraDBF=F KetDBF=F FulRan=T
         wScrn=  0.000000 ICntrl=    3107 IOpCl=  1 I1Cent=           0 NGrid=           0
         NMat0=    1 NMatS0=      1 NMatT0=    0 NMatD0=    1 NMtDS0=    0 NMtDT0=    0
 Symmetry not used in FoFCou.
 End of G2Drv F.D. properties file   721 does not exist.
 End of G2Drv F.D. properties file   722 does not exist.
 End of G2Drv F.D. properties file   788 does not exist.
 Leave Link 1110 at Wed Jan  6 16:08:44 2021, MaxMem=    33554432 cpu:        10.0
 (Enter /apps/applications/gaussian/G09.D01/2/default/g09/l1002.exe)
 Minotr:  UHF open shell wavefunction.
          IDoAtm=111111111
          Direct CPHF calculation.
          Differentiating once with respect to electric field.
                with respect to dipole field.
          Differentiating once with respect to nuclear coordinates.
          Requested convergence is 1.0D-08 RMS, and 1.0D-07 maximum.
          Secondary convergence is 1.0D-12 RMS, and 1.0D-12 maximum.
          NewPWx=T KeepS1=F KeepF1=F KeepIn=T MapXYZ=F SortEE=F KeepMc=T.
          MDV=      33554246 using IRadAn=       2.
 Generate precomputed XC quadrature information.
 Keep R1 and R2 ints in memory in canonical form, NReq=2035813.
 FoFCou: FMM=F IPFlag=           0 FMFlag=           0 FMFlg1=           0
         NFxFlg=           0 DoJE=F BraDBF=F KetDBF=F FulRan=T
         wScrn=  0.000000 ICntrl=     600 IOpCl=  0 I1Cent=           0 NGrid=           0
         NMat0=    1 NMatS0=   1081 NMatT0=    0 NMatD0=    1 NMtDS0=    0 NMtDT0=    0
 Symmetry not used in FoFCou.
          Solving linear equations simultaneously, MaxMat=       0.
          There are    30 degrees of freedom in the 1st order CPHF.  IDoFFX=6 NUNeed=     3.
     27 vectors produced by pass  0 Test12= 3.15D-15 3.33D-09 XBig12= 8.78D+01 5.49D+00.
 AX will form    27 AO Fock derivatives at one time.
     27 vectors produced by pass  1 Test12= 3.15D-15 3.33D-09 XBig12= 4.66D+00 5.12D-01.
     27 vectors produced by pass  2 Test12= 3.15D-15 3.33D-09 XBig12= 6.50D-02 4.81D-02.
     27 vectors produced by pass  3 Test12= 3.15D-15 3.33D-09 XBig12= 1.71D-04 2.59D-03.
     27 vectors produced by pass  4 Test12= 3.15D-15 3.33D-09 XBig12= 4.65D-07 1.56D-04.
     22 vectors produced by pass  5 Test12= 3.15D-15 3.33D-09 XBig12= 7.48D-10 5.09D-06.
      5 vectors produced by pass  6 Test12= 3.15D-15 3.33D-09 XBig12= 1.25D-12 2.47D-07.
      3 vectors produced by pass  7 Test12= 3.15D-15 3.33D-09 XBig12= 4.66D-15 1.16D-08.
 InvSVY:  IOpt=1 It=  1 EMax= 5.33D-15
 Solved reduced A of dimension   165 with    30 vectors.
 FullF1:  Do perturbations    1 to     3.
 Isotropic polarizability for W=    0.000000       30.29 Bohr**3.
 End of Minotr F.D. properties file   721 does not exist.
 End of Minotr F.D. properties file   722 does not exist.
 End of Minotr F.D. properties file   788 does not exist.
 Leave Link 1002 at Wed Jan  6 16:08:53 2021, MaxMem=    33554432 cpu:         8.7
 (Enter /apps/applications/gaussian/G09.D01/2/default/g09/l601.exe)
 Copying SCF densities to generalized density rwf, IOpCl= 1 IROHF=0.

 **********************************************************************

            Population analysis using the SCF density.

 **********************************************************************

 Alpha  occ. eigenvalues --  -19.04900 -10.13579 -10.13446 -10.11594  -0.97074
 Alpha  occ. eigenvalues --   -0.78485  -0.70882  -0.54165  -0.46278  -0.44068
 Alpha  occ. eigenvalues --   -0.42780  -0.41180  -0.34949  -0.28349  -0.27003
 Alpha  occ. eigenvalues --   -0.26854
 Alpha virt. eigenvalues --    0.05063   0.05859   0.12674   0.14682   0.16302
 Alpha virt. eigenvalues --    0.20473   0.22604   0.27052   0.48687   0.68191
 Alpha virt. eigenvalues --    0.70221   0.71569   0.79611   0.79614   0.90339
 Alpha virt. eigenvalues --    0.90599   0.96341   0.97756   1.03516   1.03838
 Alpha virt. eigenvalues --    1.04701   1.14893   1.25133   1.37889   1.42728
 Alpha virt. eigenvalues --    1.53798   1.63997   2.04100   2.08054   2.58137
  Beta  occ. eigenvalues --  -19.02624 -10.13564 -10.13432 -10.11504  -0.90550
  Beta  occ. eigenvalues --   -0.78355  -0.70738  -0.54082  -0.46238  -0.43088
  Beta  occ. eigenvalues --   -0.42778  -0.38783  -0.27396  -0.27304  -0.25134
  Beta virt. eigenvalues --   -0.10445   0.05412   0.05907   0.13389   0.14904
  Beta virt. eigenvalues --    0.16538   0.20480   0.22855   0.27075   0.48774
  Beta virt. eigenvalues --    0.68297   0.70253   0.72310   0.79668   0.79840
  Beta virt. eigenvalues --    0.90341   0.90922   0.96485   0.98194   1.03515
  Beta virt. eigenvalues --    1.03973   1.04746   1.15641   1.25199   1.39495
  Beta virt. eigenvalues --    1.44704   1.61228   1.66568   2.04321   2.08124
  Beta virt. eigenvalues --    2.63024
          Condensed to atoms (all electrons):
               1          2          3          4          5          6
     1  C    5.401395   0.254831   0.348855   0.365315   0.365319  -0.054145
     2  C    0.254831   4.782697  -0.044507  -0.050862  -0.050860   0.978705
     3  H    0.348855  -0.044507   0.464669  -0.021994  -0.021992  -0.002716
     4  H    0.365315  -0.050862  -0.021994   0.510812  -0.025698  -0.002658
     5  H    0.365319  -0.050860  -0.021992  -0.025698   0.510801  -0.002658
     6  C   -0.054145   0.978705  -0.002716  -0.002658  -0.002658   5.103197
     7  H    0.000981  -0.023870  -0.000020  -0.000024  -0.000024   0.379195
     8  O   -0.009662   0.010704   0.020119   0.000148   0.000148  -0.001487
     9  H    0.001029  -0.003658  -0.002050  -0.000019  -0.000019   0.007774
               7          8          9
     1  C    0.000981  -0.009662   0.001029
     2  C   -0.023870   0.010704  -0.003658
     3  H   -0.000020   0.020119  -0.002050
     4  H   -0.000024   0.000148  -0.000019
     5  H   -0.000024   0.000148  -0.000019
     6  C    0.379195  -0.001487   0.007774
     7  H    0.410246   0.000037   0.000268
     8  O    0.000037   8.135085   0.198712
     9  H    0.000268   0.198712   0.454654
          Atomic-Atomic Spin Densities.
               1          2          3          4          5          6
     1  C    0.006200   0.003235  -0.001670  -0.000137  -0.000138   0.000178
     2  C    0.003235  -0.016621  -0.000578   0.000381   0.000380   0.001596
     3  H   -0.001670  -0.000578  -0.000961   0.000265   0.000265  -0.000146
     4  H   -0.000137   0.000381   0.000265  -0.001273  -0.000027   0.000036
     5  H   -0.000138   0.000380   0.000265  -0.000027  -0.001272   0.000036
     6  C    0.000178   0.001596  -0.000146   0.000036   0.000036   0.063526
     7  H   -0.000006  -0.000117   0.000001   0.000000   0.000000  -0.000197
     8  O   -0.001969  -0.005521   0.001359   0.000039   0.000039  -0.005460
     9  H   -0.000017   0.000682   0.000120   0.000000   0.000000   0.000370
               7          8          9
     1  C   -0.000006  -0.001969  -0.000017
     2  C   -0.000117  -0.005521   0.000682
     3  H    0.000001   0.001359   0.000120
     4  H    0.000000   0.000039   0.000000
     5  H    0.000000   0.000039   0.000000
     6  C   -0.000197  -0.005460   0.000370
     7  H   -0.002334   0.000015  -0.000016
     8  O    0.000015   1.008559  -0.006182
     9  H   -0.000016  -0.006182  -0.029462
 Mulliken charges and spin densities:
               1          2
     1  C   -0.673918   0.005676
     2  C    0.146818  -0.016562
     3  H    0.259635  -0.001345
     4  H    0.224979  -0.000715
     5  H    0.224982  -0.000715
     6  C   -0.405208   0.059940
     7  H    0.233210  -0.002654
     8  O   -0.353805   0.990880
     9  H    0.343306  -0.034505
 Sum of Mulliken charges =   0.00000   1.00000
 Mulliken charges and spin densities with hydrogens summed into heavy atoms:
               1          2
     1  C    0.035679   0.002901
     2  C    0.146818  -0.016562
     6  C   -0.171998   0.057286
     8  O   -0.010499   0.956375
 APT charges:
               1
     1  C    0.012020
     2  C   -0.002812
     3  H    0.094784
     4  H    0.020112
     5  H    0.020153
     6  C   -0.385170
     7  H    0.219662
     8  O   -0.208121
     9  H    0.229372
 Sum of APT charges =   0.00000
 APT charges with hydrogens summed into heavy atoms:
               1
     1  C    0.147069
     2  C   -0.002812
     6  C   -0.165508
     8  O    0.021251
 Electronic spatial extent (au):  <R**2>=            351.8202
 Charge=              0.0000 electrons
 Dipole moment (field-independent basis, Debye):
    X=             -0.2344    Y=              0.7894    Z=              0.3947  Tot=              0.9132
 Quadrupole moment (field-independent basis, Debye-Ang):
   XX=            -22.4886   YY=            -23.8370   ZZ=            -21.1570
   XY=             -2.9080   XZ=             -3.5673   YZ=              3.2719
 Traceless Quadrupole moment (field-independent basis, Debye-Ang):
   XX=              0.0056   YY=             -1.3428   ZZ=              1.3372
   XY=             -2.9080   XZ=             -3.5673   YZ=              3.2719
 Octapole moment (field-independent basis, Debye-Ang**2):
  XXX=              2.9227  YYY=             -0.1981  ZZZ=             -4.0072  XYY=              0.4826
  XXY=             -2.8214  XXZ=              2.8525  XZZ=             -4.0358  YZZ=             -1.2919
  YYZ=              0.9415  XYZ=             -1.4344
 Hexadecapole moment (field-independent basis, Debye-Ang**3):
 XXXX=           -107.0184 YYYY=           -169.8021 ZZZZ=           -106.8914 XXXY=            -11.2516
 XXXZ=             32.3902 YYYX=            -18.3796 YYYZ=              8.6607 ZZZX=             32.3538
 ZZZY=             -4.9936 XXYY=            -53.6952 XXZZ=            -29.5481 YYZZ=            -49.6690
 XXYZ=             -2.6297 YYXZ=             12.1576 ZZXY=             -3.5464
 N-N= 9.970531761165D+01 E-N=-6.462110023655D+02  KE= 1.897981256464D+02
  Exact polarizability:  24.110  -3.792  39.934  -8.860   8.574  26.832
 Approx polarizability:  30.163 -10.534  63.482 -13.049  19.445  36.494
                          Isotropic Fermi Contact Couplings
        Atom                 a.u.       MegaHertz       Gauss      10(-4) cm-1
     1  C(13)              0.00435       4.88789       1.74412       1.63042
     2  C(13)              0.00086       0.96222       0.34334       0.32096
     3  H(1)              -0.00061      -2.70849      -0.96646      -0.90346
     4  H(1)              -0.00029      -1.27597      -0.45530      -0.42562
     5  H(1)              -0.00029      -1.27519      -0.45502      -0.42536
     6  C(13)              0.00735       8.26452       2.94899       2.75675
     7  H(1)              -0.00093      -4.17361      -1.48925      -1.39217
     8  O(17)              0.10264     -62.22214     -22.20240     -20.75507
     9  H(1)              -0.01327     -59.31186     -21.16395     -19.78431
 --------------------------------------------------------
       Center         ----  Spin Dipole Couplings  ----
                      3XX-RR        3YY-RR        3ZZ-RR
 --------------------------------------------------------
     1   Atom        0.004449     -0.008393      0.003944
     2   Atom       -0.001546      0.007981     -0.006436
     3   Atom        0.003227     -0.009169      0.005942
     4   Atom        0.004326     -0.003088     -0.001238
     5   Atom       -0.001150     -0.003035      0.004185
     6   Atom       -0.003343      0.020321     -0.016977
     7   Atom       -0.004818      0.009042     -0.004224
     8   Atom        0.083665      0.436624     -0.520290
     9   Atom       -0.051875      0.071755     -0.019881
 --------------------------------------------------------
                        XY            XZ            YZ
 --------------------------------------------------------
     1   Atom        0.002494     -0.013538     -0.002345
     2   Atom        0.016892     -0.018209     -0.011084
     3   Atom       -0.004880     -0.018316      0.005886
     4   Atom        0.000367     -0.004064     -0.000353
     5   Atom        0.000765     -0.004002     -0.001024
     6   Atom        0.041702     -0.022978     -0.031618
     7   Atom        0.000342     -0.002576      0.002913
     8   Atom        1.840429     -1.385238     -1.458657
     9   Atom       -0.055501     -0.078223      0.094036
 --------------------------------------------------------


 ---------------------------------------------------------------------------------
              Anisotropic Spin Dipole Couplings in Principal Axis System
 ---------------------------------------------------------------------------------

       Atom             a.u.   MegaHertz   Gauss  10(-4) cm-1        Axes

              Baa    -0.0094    -1.255    -0.448    -0.419  0.7061 -0.1375  0.6946
     1 C(13)  Bbb    -0.0088    -1.184    -0.423    -0.395  0.0068  0.9822  0.1876
              Bcc     0.0182     2.439     0.870     0.814  0.7081  0.1278 -0.6945
 
              Baa    -0.0227    -3.053    -1.089    -1.018  0.7061 -0.1376  0.6946
     2 C(13)  Bbb    -0.0088    -1.175    -0.419    -0.392 -0.3861  0.7475  0.5405
              Bcc     0.0315     4.228     1.509     1.410  0.5936  0.6498 -0.4747
 
              Baa    -0.0138    -7.385    -2.635    -2.463  0.7061 -0.1376  0.6946
     3 H(1)   Bbb    -0.0108    -5.779    -2.062    -1.928  0.2515  0.9657 -0.0643
              Bcc     0.0247    13.164     4.697     4.391 -0.6620  0.2201  0.7165
 
              Baa    -0.0034    -1.836    -0.655    -0.613  0.4118  0.3926  0.8224
     4 H(1)   Bbb    -0.0031    -1.629    -0.581    -0.543 -0.2251  0.9183 -0.3257
              Bcc     0.0065     3.465     1.236     1.156  0.8831  0.0510 -0.4665
 
              Baa    -0.0034    -1.836    -0.655    -0.613  0.7292 -0.6151  0.3000
     5 H(1)   Bbb    -0.0031    -1.629    -0.581    -0.543  0.4974  0.7774  0.3850
              Bcc     0.0065     3.465     1.236     1.156 -0.4700 -0.1315  0.8728
 
              Baa    -0.0354    -4.754    -1.696    -1.586 -0.4496  0.6708  0.5898
     6 C(13)  Bbb    -0.0341    -4.572    -1.632    -1.525  0.7061 -0.1375  0.6947
              Bcc     0.0695     9.326     3.328     3.111  0.5471  0.7287 -0.4118
 
              Baa    -0.0074    -3.959    -1.413    -1.320  0.7061 -0.1376  0.6946
     7 H(1)   Bbb    -0.0022    -1.193    -0.426    -0.398  0.7080  0.1564 -0.6887
              Bcc     0.0097     5.152     1.838     1.719 -0.0139  0.9781  0.2079
 
              Baa    -1.6387   118.574    42.310    39.552  0.7060 -0.1378  0.6947
     8 O(17)  Bbb    -1.5585   112.770    40.239    37.616 -0.3846  0.7491  0.5394
              Bcc     3.1971  -231.343   -82.549   -77.168  0.5947  0.6480 -0.4759
 
              Baa    -0.1180   -62.970   -22.469   -21.004  0.7060 -0.1378  0.6947
     9 H(1)   Bbb    -0.0492   -26.260    -9.370    -8.759  0.5962  0.6451 -0.4779
              Bcc     0.1672    89.230    31.839    29.764 -0.3823  0.7516  0.5375
 

 ---------------------------------------------------------------------------------

 No NMR shielding tensors so no spin-rotation constants.
 Leave Link  601 at Wed Jan  6 16:08:53 2021, MaxMem=    33554432 cpu:         0.1
 (Enter /apps/applications/gaussian/G09.D01/2/default/g09/l701.exe)
 Compute integral second derivatives.
 ... and contract with generalized density number  0.
 Leave Link  701 at Wed Jan  6 16:08:53 2021, MaxMem=    33554432 cpu:         0.1
 (Enter /apps/applications/gaussian/G09.D01/2/default/g09/l702.exe)
 L702 exits ... SP integral derivatives will be done elsewhere.
 Leave Link  702 at Wed Jan  6 16:08:53 2021, MaxMem=    33554432 cpu:         0.1
 (Enter /apps/applications/gaussian/G09.D01/2/default/g09/l703.exe)
 Compute integral second derivatives, UseDBF=F ICtDFT=           0.
 Integral derivatives from FoFJK, PRISM(SPDF).
 Calling FoFJK, ICntrl=    100127 FMM=F ISym2X=0 I1Cent= 0 IOpClX= 1 NMat=1 NMatS=1 NMatT=0.
 FoFJK:  IHMeth= 1 ICntrl=  100127 DoSepK=F KAlg= 0 I1Cent=   0 FoldK=F
 IRaf=         0 NMat=   1 IRICut=       1 DoRegI=T DoRafI=F ISym2E= 0.
 FoFCou: FMM=F IPFlag=           0 FMFlag=      100000 FMFlg1=         800
         NFxFlg=           0 DoJE=F BraDBF=F KetDBF=F FulRan=T
         wScrn=  0.000000 ICntrl=  100127 IOpCl=  1 I1Cent=           0 NGrid=           0
         NMat0=    1 NMatS0=      1 NMatT0=    0 NMatD0=    1 NMtDS0=    0 NMtDT0=    0
 Symmetry not used in FoFCou.
 Leave Link  703 at Wed Jan  6 16:09:02 2021, MaxMem=    33554432 cpu:         8.6
 (Enter /apps/applications/gaussian/G09.D01/2/default/g09/l716.exe)
 Dipole        =-9.22178646D-02 3.10586889D-01 1.55306341D-01
 Polarizability= 2.41095714D+01-3.79201839D+00 3.99343723D+01
                -8.86015989D+00 8.57437382D+00 2.68315650D+01
 -------------------------------------------------------------------
 Center     Atomic                   Forces (Hartrees/Bohr)
 Number     Number              X              Y              Z
 -------------------------------------------------------------------
      1        6           0.008836150   -0.026903682   -0.014308975
      2        6          -0.006821261    0.007386480    0.008401654
      3        1           0.002802326    0.010738414   -0.000734932
      4        1          -0.003300839    0.002439341   -0.000590596
      5        1           0.001045904    0.001591853    0.003683645
      6        6           0.007513632   -0.016918971   -0.010980610
      7        1          -0.008436562    0.021575226    0.012850829
      8        8           0.008145784   -0.018802462   -0.011998686
      9        1          -0.009785133    0.018893802    0.013677671
 -------------------------------------------------------------------
 Cartesian Forces:  Max     0.026903682 RMS     0.011714436
 Force constants in Cartesian coordinates: 
                1             2             3             4             5 
      1  0.518334D+00
      2 -0.157539D-01  0.526665D+00
      3 -0.567709D-02  0.182162D-01  0.525189D+00
      4 -0.933215D-01  0.666993D-01  0.407847D-01  0.262369D+00
      5  0.693291D-01 -0.218630D+00 -0.100689D+00 -0.385992D+00  0.961687D+00
      6  0.413127D-01 -0.979998D-01 -0.127604D+00 -0.244389D+00  0.563609D+00
      7 -0.996356D-01 -0.914523D-01  0.321302D-01  0.626303D-02  0.141828D-01
      8 -0.890800D-01 -0.209296D+00  0.590427D-01 -0.893699D-02 -0.309788D-01
      9  0.325828D-01  0.614193D-01 -0.711870D-01 -0.104936D-01 -0.201275D-01
     10 -0.280724D+00  0.277517D-01 -0.355860D-01 -0.116371D-01  0.714091D-02
     11  0.272598D-01 -0.510894D-01  0.264723D-02  0.342476D-01 -0.102356D-01
     12 -0.357057D-01  0.272369D-02 -0.524837D-01  0.230970D-01 -0.385107D-02
     13 -0.532362D-01  0.554563D-02 -0.393694D-01 -0.236257D-03 -0.126349D-02
     14  0.560237D-02 -0.511702D-01  0.257150D-01 -0.423192D-02 -0.153183D-02
     15 -0.393277D-01  0.251990D-01 -0.279873D+00  0.103242D-02 -0.564789D-02
     16  0.612891D-02  0.300273D-02  0.167206D-02 -0.166094D+00  0.294177D+00
     17  0.256522D-02  0.109919D-02 -0.381566D-02  0.300345D+00 -0.714583D+00
     18  0.158715D-02 -0.425842D-02  0.473479D-02  0.190253D+00 -0.433098D+00
     19  0.516279D-02  0.138275D-02  0.103430D-02  0.391156D-02 -0.606623D-03
     20  0.135391D-02  0.230940D-02 -0.209004D-02 -0.216154D-02  0.752458D-02
     21  0.102861D-02 -0.211872D-02  0.444546D-02 -0.779355D-03  0.140157D-02
     22 -0.310828D-02  0.211024D-02  0.434819D-02 -0.191960D-04  0.484907D-02
     23 -0.166549D-02 -0.734677D-03  0.138351D-02  0.953969D-03  0.119102D-01
     24  0.360503D-02 -0.244545D-02 -0.338279D-02 -0.733669D-03 -0.239536D-02
     25  0.399852D-03  0.713873D-03  0.663124D-03 -0.123515D-02 -0.181705D-02
     26  0.389082D-03  0.847168D-03 -0.409474D-03 -0.923940D-03 -0.516326D-02
     27  0.594140D-03 -0.735783D-03  0.161187D-03  0.122832D-02  0.799120D-03
                6             7             8             9            10 
      6  0.457286D+00
      7 -0.591882D-02  0.111003D+00
      8  0.345200D-02  0.990299D-01  0.238526D+00
      9  0.440034D-02 -0.397012D-01 -0.639008D-01  0.802973D-01
     10  0.325782D-02 -0.164883D-01  0.150722D-02 -0.338288D-02  0.313610D+00
     11  0.206592D-02 -0.284996D-01  0.442720D-02 -0.571116D-02 -0.346769D-01
     12 -0.154230D-03  0.112287D-01 -0.167257D-02  0.807781D-03  0.372990D-01
     13  0.160961D-01  0.231661D-02 -0.118575D-02  0.166944D-01 -0.554547D-02
     14 -0.361128D-01  0.663502D-02 -0.260753D-02  0.285313D-01 -0.392683D-03
     15 -0.202576D-01 -0.231696D-02  0.192693D-02 -0.109622D-01 -0.121194D-02
     16  0.189020D+00 -0.309379D-03  0.914720D-03  0.184592D-02  0.843191D-03
     17 -0.439368D+00  0.617925D-03  0.955145D-03 -0.704121D-03 -0.128737D-02
     18 -0.316711D+00  0.178484D-02 -0.100144D-02 -0.688631D-03 -0.990011D-03
     19 -0.472614D-03 -0.329833D-03  0.503538D-03  0.457210D-03  0.239947D-03
     20  0.298427D-02 -0.330212D-03  0.436593D-03  0.416730D-03  0.620365D-04
     21  0.463762D-02  0.291744D-03 -0.428994D-03 -0.360192D-03  0.805768D-04
     22  0.276101D-04 -0.223872D-02 -0.300181D-02  0.301650D-02 -0.398143D-03
     23  0.147840D-02  0.118839D-02 -0.253576D-02 -0.186041D-02 -0.234663D-03
     24 -0.659369D-03  0.384944D-02  0.229184D-02 -0.209622D-02  0.578488D-03
     25  0.106616D-02 -0.580725D-03  0.249174D-03 -0.101912D-02  0.100328D-03
     26 -0.109194D-03 -0.137192D-02  0.107340D-02  0.193677D-02  0.129729D-03
     27 -0.937557D-03 -0.134787D-02  0.290411D-03 -0.211162D-03 -0.450879D-04
               11            12            13            14            15 
     11  0.593765D-01
     12  0.378175D-03  0.572790D-01
     13  0.407084D-02 -0.347885D-01  0.569709D-01
     14 -0.165781D-02  0.355745D-02 -0.828995D-02  0.588272D-01
     15  0.140458D-02 -0.482100D-02  0.418033D-01 -0.237477D-01  0.314450D+00
     16 -0.878197D-03 -0.645834D-03  0.537906D-03  0.128379D-02 -0.481228D-03
     17 -0.373464D-03 -0.121027D-02  0.109795D-02 -0.124896D-02  0.104443D-02
     18 -0.134858D-02  0.630975D-04 -0.254907D-03  0.578543D-03  0.124026D-02
     19 -0.947136D-03 -0.667041D-03 -0.948969D-04  0.401279D-03  0.147244D-03
     20 -0.133839D-03 -0.148894D-03  0.230691D-03 -0.416766D-03 -0.206077D-03
     21 -0.432630D-03 -0.209680D-03 -0.434415D-03  0.929788D-03  0.407539D-03
     22 -0.670953D-03  0.373668D-03 -0.781519D-03 -0.778926D-03  0.471247D-03
     23 -0.447814D-03  0.366386D-03 -0.400133D-03 -0.380712D-03  0.127930D-03
     24  0.736070D-03 -0.570035D-03  0.425856D-03  0.588109D-03 -0.252710D-03
     25  0.945140D-04 -0.191254D-03  0.689727D-04 -0.228972D-03 -0.116483D-03
     26  0.134277D-03 -0.142900D-03  0.194217D-03  0.186593D-03 -0.101215D-03
     27  0.260399D-03  0.887183D-04 -0.172442D-03 -0.396091D-04  0.687897D-04
               16            17            18            19            20 
     16  0.226264D+00
     17 -0.431161D+00  0.104980D+01
     18 -0.273573D+00  0.637993D+00  0.445736D+00
     19 -0.669607D-01  0.131466D+00  0.815863D-01  0.579513D-01
     20  0.132908D+00 -0.330208D+00 -0.198064D+00 -0.131921D+00  0.320818D+00
     21  0.818709D-01 -0.196599D+00 -0.134515D+00 -0.821689D-01  0.197081D+00
     22 -0.354635D-03 -0.377775D-02 -0.341952D-03 -0.505165D-04  0.256156D-03
     23  0.212045D-02 -0.530595D-02 -0.320136D-02 -0.103078D-03  0.324444D-04
     24  0.818755D-03  0.278645D-02 -0.242725D-03 -0.240097D-03 -0.201389D-03
     25 -0.548415D-04  0.133015D-03 -0.518959D-04  0.170335D-03 -0.397881D-03
     26 -0.236806D-02 -0.137758D-03  0.240005D-02 -0.175847D-03 -0.362332D-03
     27 -0.527776D-03 -0.127847D-03  0.383481D-03  0.323603D-03  0.227728D-03
               21            22            23            24            25 
     21  0.125417D+00
     22 -0.169304D-03  0.570648D-01
     23  0.163645D-03 -0.141296D+00  0.284496D+00
     24 -0.615064D-04 -0.103559D+00  0.203443D+00  0.128353D+00
     25  0.280204D-03 -0.501138D-01  0.139437D+00  0.952551D-01  0.512450D-01
     26  0.254164D-05  0.142310D+00 -0.287034D+00 -0.204804D+00 -0.138184D+00
     27  0.238569D-03  0.958330D-01 -0.201901D+00 -0.121088D+00 -0.958859D-01
               26            27 
     26  0.290456D+00
     27  0.201227D+00  0.121296D+00
 Leave Link  716 at Wed Jan  6 16:09:02 2021, MaxMem=    33554432 cpu:         0.0
 (Enter /apps/applications/gaussian/G09.D01/2/default/g09/l103.exe)

 GradGradGradGradGradGradGradGradGradGradGradGradGradGradGradGradGradGrad
 Berny optimization.
 Search for a saddle point.
 Step number   1 out of a maximum of  100
 All quantities printed in internal units (Hartrees-Bohrs-Radians)
 Swapping is turned off.
 Second derivative matrix not updated -- analytic derivatives used.
 ITU=  0
     Eigenvalues ---   -0.02677  -0.02387   0.00031   0.00159   0.00548
     Eigenvalues ---    0.00657   0.01098   0.04439   0.04708   0.09476
     Eigenvalues ---    0.10865   0.11145   0.15407   0.16202   0.25013
     Eigenvalues ---    0.51346   0.69023   0.69911   0.86685   0.88873
     Eigenvalues ---    2.77186
 Eigenvectors required to have negative eigenvalues:
                          X9        Z9        X8        Z8        Y9
   1                    0.64961   0.62615  -0.25705  -0.24503  -0.11972
                          X3        Z3        X7        Z7        Y5
   1                    0.10028   0.09913  -0.06378  -0.06294  -0.05981
 Eigenvalue     2 is  -2.39D-02 should be greater than     0.000000 Eigenvector:
                          X9        Y8        Z9        Y9        X8
   1                    0.48268  -0.45299  -0.43286   0.38517  -0.32282
                          Z8        Y2        Y6        X2        Y3
   1                    0.24548   0.13893   0.09471   0.09274   0.07807
 RFO step:  Lambda0=2.939733317D-08 Lambda=-2.39259575D-02.
 Linear search not attempted -- option 19 set.
 Maximum step size (   0.300) exceeded in Quadratic search.
    -- Step size scaled by   0.396
 TrRot=  0.010983  0.009222 -0.009782 -1.661238 -0.001548  1.659523
 Variable       Old X    -DE/DX   Delta X   Delta X   Delta X     New X
                                 (Linear)    (Quad)   (Total)
    X1        1.39949   0.00884   0.00000   0.00553   0.01451   1.41400
    Y1       -1.00032  -0.02690   0.00000  -0.03201  -0.02771  -1.02803
    Z1       -1.62073  -0.01431   0.00000  -0.01163  -0.02001  -1.64074
    X2        0.47526  -0.00682   0.00000  -0.03470  -0.02186   0.45340
    Y2        1.14822   0.00739   0.00000  -0.04749  -0.03938   1.10884
    Z2       -0.25565   0.00840   0.00000   0.02599   0.01445  -0.24120
    X3        0.44417   0.00280   0.00000   0.01019   0.01628   0.46045
    Y3       -2.75851   0.01074   0.00000  -0.01602  -0.00913  -2.76764
    Z3       -0.99778  -0.00073   0.00000  -0.01291  -0.01848  -1.01626
    X4        3.44654  -0.00330   0.00000   0.00244   0.01105   3.45758
    Y4       -1.27776   0.00244   0.00000   0.00199   0.00324  -1.27452
    Z4       -1.33408  -0.00059   0.00000  -0.00204  -0.01033  -1.34442
    X5        1.07012   0.00105   0.00000   0.00238   0.01145   1.08157
    Y5       -0.81478   0.00159   0.00000   0.00162   0.00334  -0.81144
    Z5       -3.67174   0.00368   0.00000  -0.00176  -0.01043  -3.68216
    X6       -0.31142   0.00751   0.00000  -0.01708  -0.00096  -0.31238
    Y6        2.94845  -0.01692   0.00000  -0.02643  -0.01525   2.93319
    Z6        0.90060  -0.01098   0.00000   0.01176  -0.00248   0.89812
    X7       -0.96007  -0.00844   0.00000  -0.00605   0.01294  -0.94713
    Y7        4.50930   0.02158   0.00000   0.00670   0.02046   4.52976
    Z7        1.86914   0.01285   0.00000   0.00667  -0.00994   1.85919
    X8       -2.44740   0.00815   0.00000   0.09065   0.09855  -2.34885
    Y8       -2.09344  -0.01880   0.00000   0.12954   0.14589  -1.94754
    Z8        2.07304  -0.01200   0.00000  -0.06878  -0.07522   1.99782
    X9       -3.11668  -0.00979   0.00000  -0.15209  -0.14196  -3.25864
    Y9       -0.66116   0.01889   0.00000  -0.10119  -0.08146  -0.74262
    Z9        3.03721   0.01368   0.00000   0.14060   0.13244   3.16965
         Item               Value     Threshold  Converged?
 Maximum Force            0.026904     0.000450     NO 
 RMS     Force            0.011714     0.000300     NO 
 Maximum Displacement     0.145894     0.001800     NO 
 RMS     Displacement     0.056668     0.001200     NO 
 Predicted change in Energy=-2.843418D-03
 Lowest energy point so far.  Saving SCF results.
 GradGradGradGradGradGradGradGradGradGradGradGradGradGradGradGradGradGrad

 Leave Link  103 at Wed Jan  6 16:09:02 2021, MaxMem=    33554432 cpu:         0.0
 (Enter /apps/applications/gaussian/G09.D01/2/default/g09/l202.exe)
                          Input orientation:                          
 ---------------------------------------------------------------------
 Center     Atomic      Atomic             Coordinates (Angstroms)
 Number     Number       Type             X           Y           Z
 ---------------------------------------------------------------------
      1          6           0        0.748257   -0.544011   -0.868243
      2          6           0        0.239928    0.586773   -0.127640
      3          1           0        0.243659   -1.464573   -0.537782
      4          1           0        1.829673   -0.674445   -0.711434
      5          1           0        0.572341   -0.429395   -1.948518
      6          6           0       -0.165302    1.552180    0.475266
      7          1           0       -0.501199    2.397045    0.983843
      8          8           0       -1.242957   -1.030594    1.057201
      9          1           0       -1.724400   -0.392978    1.677306
 ---------------------------------------------------------------------
                    Distance matrix (angstroms):
                    1          2          3          4          5
     1  C    0.000000
     2  C    1.444148   0.000000
     3  H    1.100571   2.091949   0.000000
     4  H    1.100483   2.111582   1.780421   0.000000
     5  H    1.100490   2.111562   1.780393   1.780818   0.000000
     6  C    2.652098   1.208188   3.208475   3.216527   3.216440
     7  H    3.693396   2.249833   4.216900   4.212004   4.211887
     8  O    2.812300   2.493727   2.223137   3.563140   3.562456
     9  H    3.551994   2.841888   3.150902   4.291473   4.292195
                    6          7          8          9
     6  C    0.000000
     7  H    1.041765   0.000000
     8  O    2.858445   3.507748   0.000000
     9  H    2.767548   3.124314   1.011371   0.000000
 Symmetry turned off by external request.
 Stoichiometry    C3H5O(2)
 Framework group  C1[X(C3H5O)]
 Deg. of freedom    21
 Full point group                 C1      NOp   1
 Rotational constants (GHZ):      8.5184019      6.4091119      3.7439650
 Leave Link  202 at Wed Jan  6 16:09:02 2021, MaxMem=    33554432 cpu:         0.0
 (Enter /apps/applications/gaussian/G09.D01/2/default/g09/l301.exe)
 Standard basis: 3-21G (6D, 7F)
 Ernie: Thresh=  0.10000D-02 Tol=  0.10000D-05 Strict=F.
    46 basis functions,    75 primitive gaussians,    46 cartesian basis functions
    16 alpha electrons       15 beta electrons
       nuclear repulsion energy       100.3929496414 Hartrees.
 IExCor=  402 DFT=T Ex+Corr=B3LYP ExCW=0 ScaHFX=  0.200000
 ScaDFX=  0.800000  0.720000  1.000000  0.810000 ScalE2=  1.000000  1.000000
 IRadAn=      0 IRanWt=     -1 IRanGd=            0 ICorTp=0 IEmpDi=  4
 NAtoms=    9 NActive=    9 NUniq=    9 SFac= 1.00D+00 NAtFMM=   60 NAOKFM=F Big=F
 Integral buffers will be    131072 words long.
 Raffenetti 2 integral format.
 Two-electron integral symmetry is turned off.
 Leave Link  301 at Wed Jan  6 16:09:02 2021, MaxMem=    33554432 cpu:         0.1
 (Enter /apps/applications/gaussian/G09.D01/2/default/g09/l302.exe)
 NPDir=0 NMtPBC=     1 NCelOv=     1 NCel=       1 NClECP=     1 NCelD=      1
         NCelK=      1 NCelE2=     1 NClLst=     1 CellRange=     0.0.
 One-electron integrals computed using PRISM.
 NBasis=    46 RedAO= T EigKep=  1.24D-03  NBF=    46
 NBsUse=    46 1.00D-06 EigRej= -1.00D+00 NBFU=    46
 Precomputing XC quadrature grid using
 IXCGrd= 4 IRadAn=           0 IRanWt=          -1 IRanGd=           0 AccXCQ= 0.00D+00.
 Generated NRdTot=       0 NPtTot=           0 NUsed=           0 NTot=          32
 NSgBfM=    46    46    46    46    46 MxSgAt=     9 MxSgA2=     9.
 Leave Link  302 at Wed Jan  6 16:09:02 2021, MaxMem=    33554432 cpu:         0.2
 (Enter /apps/applications/gaussian/G09.D01/2/default/g09/l303.exe)
 DipDrv:  MaxL=1.
 Leave Link  303 at Wed Jan  6 16:09:02 2021, MaxMem=    33554432 cpu:         0.1
 (Enter /apps/applications/gaussian/G09.D01/2/default/g09/l401.exe)
 Initial guess from the checkpoint file:  "/nobackup/chmrsh/Scratch/Gau-128653.chk"
 B after Tr=     0.020738    0.017758   -0.018282
         Rot=    0.999998    0.001490   -0.000138    0.001631 Ang=   0.25 deg.
 Guess basis will be translated and rotated to current coordinates.
 JPrj=2 DoOrth=T DoCkMO=T.
 Initial guess <Sx>= 0.0000 <Sy>= 0.0000 <Sz>= 0.5000 <S**2>= 0.7516 S= 0.5008
 Generating alternative initial guess.
 ExpMin= 1.83D-01 ExpMax= 3.22D+02 ExpMxC= 3.22D+02 IAcc=1 IRadAn=         1 AccDes= 0.00D+00
 Harris functional with IExCor=  402 and IRadAn=       1 diagonalized for initial guess.
 HarFok:  IExCor=  402 AccDes= 0.00D+00 IRadAn=         1 IDoV= 1 UseB2=F ITyADJ=14
 ICtDFT=  3500011 ScaDFX=  1.000000  1.000000  1.000000  1.000000
 FoFCou: FMM=F IPFlag=           0 FMFlag=      100000 FMFlg1=           0
         NFxFlg=           0 DoJE=T BraDBF=F KetDBF=T FulRan=T
         wScrn=  0.000000 ICntrl=     500 IOpCl=  0 I1Cent=   200000004 NGrid=           0
         NMat0=    1 NMatS0=      1 NMatT0=    0 NMatD0=    1 NMtDS0=    0 NMtDT0=    0
 Symmetry not used in FoFCou.
 Harris En= -191.330224569623    
 Leave Link  401 at Wed Jan  6 16:09:03 2021, MaxMem=    33554432 cpu:         0.3
 (Enter /apps/applications/gaussian/G09.D01/2/default/g09/l508.exe)
 Direct SCF.
 Tight linear equation convergence will be used.
 UB3LYP wavefunction.
 Quadratic Convergence SCF Method.
 Line search only if initial step raises energy.
 Two-electron integral symmetry not used.
 ReadGW:  IGet=1 IStart=         402 Next=         402 LGW=           0.
 Keep R1 and R2 ints in memory in canonical form, NReq=2054730.
 FoFCou: FMM=F IPFlag=           0 FMFlag=           0 FMFlg1=           0
         NFxFlg=           0 DoJE=F BraDBF=F KetDBF=F FulRan=T
         wScrn=  0.000000 ICntrl=     600 IOpCl=  0 I1Cent=           0 NGrid=           0
         NMat0=    1 NMatS0=   1081 NMatT0=    0 NMatD0=    1 NMtDS0=    0 NMtDT0=    0
 Symmetry not used in FoFCou.
 Iteration   1 EE= -191.321511502615                                    Grad=7.757D-02 Max rot=    1.0428 deg.
 Gradient too large for Newton-Raphson -- use scaled steepest descent instead.
 Alpha Gap=     0.550 HL deriv= 2.09D-03
  Beta Gap=     0.525 HL deriv= 6.79D-05
     ILin= 1 X=0.000D+00 Y=-1.913215115026D+02 DE= 0.00D+00 F= -7.53D-03
     ILin= 2 X=3.000D-01 Y=-1.913234854885D+02 DE=-1.97D-03 F= -5.63D-03
     ILin= 3 X=6.000D-01 Y=-1.913248908648D+02 DE=-3.38D-03 F= -3.74D-03
     ILin= 4 X=1.200D+00 Y=-1.913259902330D+02 DE=-4.48D-03 F=  7.31D-05
     Accept linear search using points  3 and  4.
     An  expanding polynomial of degree  4 produced  1.1264
     Minimum is close to point  4 DX= -7.36D-02 DF= -5.05D-06 DXR=  6.53D-02 DFR=  1.13D-03 which will be used.
 Iteration   2 EE= -191.325990232962     Delta-E=       -0.004478730347 Grad=4.340D-02 Max rot=    0.6476 deg.
 Gradient too large for Newton-Raphson -- use scaled steepest descent instead.
 Alpha Gap=     0.553 HL deriv= 1.08D-03
  Beta Gap=     0.533 HL deriv= 6.68D-06
     ILin= 1 X=0.000D+00 Y=-1.913259902330D+02 DE= 0.00D+00 F= -2.52D-03
     ILin= 2 X=6.000D-01 Y=-1.913270320769D+02 DE=-1.04D-03 F= -9.53D-04
     ILin= 3 X=1.200D+00 Y=-1.913271336426D+02 DE=-1.14D-03 F=  6.14D-04
     Accept linear search using points  2 and  3.
     An  expanding polynomial of degree  3 produced  0.9264
 Iteration   3 EE= -191.327203936930     Delta-E=       -0.001213703969 Grad=3.084D-02 Max rot=    0.6939 deg.
 Gradient too large for Newton-Raphson -- use scaled steepest descent instead.
 Alpha Gap=     0.551 HL deriv= 5.43D-04
  Beta Gap=     0.524 HL deriv= 2.19D-05
     ILin= 1 X=0.000D+00 Y=-1.913272039369D+02 DE= 0.00D+00 F= -1.39D-03
     ILin= 2 X=1.000D+00 Y=-1.913277712060D+02 DE=-5.67D-04 F=  2.56D-04
     Accept linear search using points  1 and  2.
     An  expanding polynomial of degree  2 produced  0.8443
 Iteration   4 EE= -191.327791154474     Delta-E=       -0.000587217543 Grad=2.782D-02 Max rot=    0.5873 deg.
 Gradient too large for Newton-Raphson -- use scaled steepest descent instead.
 Alpha Gap=     0.553 HL deriv= 2.06D-04
  Beta Gap=     0.533 HL deriv= 7.17D-06
     ILin= 1 X=0.000D+00 Y=-1.913277911545D+02 DE= 0.00D+00 F= -1.10D-03
     ILin= 2 X=9.000D-01 Y=-1.913281615703D+02 DE=-3.70D-04 F=  2.74D-04
     Accept linear search using points  1 and  2.
     An  expanding polynomial of degree  2 produced  0.6920
 Iteration   5 EE= -191.328185565003     Delta-E=       -0.000394410529 Grad=2.111D-02 Max rot=    0.4408 deg.
 Gradient too large for Newton-Raphson -- use scaled steepest descent instead.
 Alpha Gap=     0.552 HL deriv= 7.66D-05
  Beta Gap=     0.525 HL deriv= 9.61D-06
     ILin= 1 X=0.000D+00 Y=-1.913281855650D+02 DE= 0.00D+00 F= -6.64D-04
     ILin= 2 X=8.000D-01 Y=-1.913284799670D+02 DE=-2.94D-04 F= -7.26D-05
     Reject lnstep minimum 1.858D+00 FVal=-1.913285132301D+02 Lims=  0.00D+00  8.00D-01
     ILin= 3 X=1.500D+00 Y=-1.913283501184D+02 DE=-1.65D-04 F=  4.43D-04
     An  expanding polynomial of degree  3 produced  0.8986
 Iteration   6 EE= -191.328483535544     Delta-E=       -0.000297970540 Grad=2.224D-02 Max rot=    0.5521 deg.
 Gradient too large for Newton-Raphson -- use scaled steepest descent instead.
 Alpha Gap=     0.553 HL deriv= 2.60D-04
  Beta Gap=     0.532 HL deriv= 4.32D-06
     ILin= 1 X=0.000D+00 Y=-1.913284835355D+02 DE= 0.00D+00 F= -6.84D-04
     ILin= 2 X=8.000D-01 Y=-1.913287021605D+02 DE=-2.19D-04 F=  1.38D-04
     Accept linear search using points  1 and  2.
     An  expanding polynomial of degree  2 produced  0.6104
 Iteration   7 EE= -191.328709799532     Delta-E=       -0.000226263988 Grad=1.490D-02 Max rot=    0.3325 deg.
 Gradient too large for Newton-Raphson -- use scaled steepest descent instead.
 Alpha Gap=     0.553 HL deriv= 9.14D-05
  Beta Gap=     0.525 HL deriv= 3.48D-06
     ILin= 1 X=0.000D+00 Y=-1.913287097995D+02 DE= 0.00D+00 F= -3.32D-04
     ILin= 2 X=7.000D-01 Y=-1.913288738095D+02 DE=-1.64D-04 F= -1.36D-04
     ILin= 3 X=1.500D+00 Y=-1.913288933090D+02 DE=-1.84D-04 F=  8.74D-05
     Accept linear search using points  2 and  3.
     An  expanding polynomial of degree  3 produced  1.1617
 Iteration   8 EE= -191.328906897280     Delta-E=       -0.000197097748 Grad=1.917D-02 Max rot=    0.4699 deg.
 Gradient too large for Newton-Raphson -- use scaled steepest descent instead.
 Alpha Gap=     0.553 HL deriv= 2.17D-04
  Beta Gap=     0.531 HL deriv= 2.94D-06
     ILin= 1 X=0.000D+00 Y=-1.913289068973D+02 DE= 0.00D+00 F= -5.03D-04
     ILin= 2 X=8.000D-01 Y=-1.913290317632D+02 DE=-1.25D-04 F=  1.92D-04
     Accept linear search using points  1 and  2.
     An  expanding polynomial of degree  2 produced  0.5325
 Iteration   9 EE= -191.329051881851     Delta-E=       -0.000144984571 Grad=1.065D-02 Max rot=    0.2771 deg.
 Gradient too large for Newton-Raphson -- use scaled steepest descent instead.
 Alpha Gap=     0.553 HL deriv= 7.17D-05
  Beta Gap=     0.526 HL deriv= 1.70D-06
     ILin= 1 X=0.000D+00 Y=-1.913290518819D+02 DE= 0.00D+00 F= -1.69D-04
     ILin= 2 X=8.000D-01 Y=-1.913291548930D+02 DE=-1.03D-04 F= -8.88D-05
     ILin= 3 X=1.600D+00 Y=-1.913291939364D+02 DE=-1.42D-04 F= -8.88D-06
     Reject lnstep minimum 2.586D+00 FVal=-1.913291968468D+02 Lims=  8.00D-01  1.60D+00
     ILin= 4 X=3.100D+00 Y=-1.913290952045D+02 DE=-4.33D-05 F=  1.40D-04
     An  expanding polynomial of degree  4 produced  1.6891
     Minimum is close to point  3 DX=  8.91D-02 DF= -3.95D-07 DXR=  5.27D-02 DFR=  2.78D-03 which will be used.
 Iteration  10 EE= -191.329193936431     Delta-E=       -0.000142054580 Grad=1.631D-02 Max rot=    0.3716 deg.
 Gradient too large for Newton-Raphson -- use scaled steepest descent instead.
 Alpha Gap=     0.553 HL deriv= 1.81D-04
  Beta Gap=     0.530 HL deriv= 2.04D-06
     ILin= 1 X=0.000D+00 Y=-1.913291939364D+02 DE= 0.00D+00 F= -3.65D-04
     ILin= 2 X=9.000D-01 Y=-1.913292356163D+02 DE=-4.17D-05 F=  2.72D-04
     Accept linear search using points  1 and  2.
     An  expanding polynomial of degree  2 produced  0.5059
 Iteration  11 EE= -191.329287899810     Delta-E=       -0.000093963379 Grad=7.667D-03 Max rot=    0.2052 deg.
 QCNR:  CnvC1=3.07D-09 CnvC2=3.07D-08
 LinEq1:  Iter=  0 NonCon=     1 RMS=8.01D-04 Max=1.88D-02 NDo=     1
 AX will form     1 AO Fock derivatives at one time.
 LinEq1:  Iter=  1 NonCon=     1 RMS=9.91D-05 Max=1.70D-03 NDo=     1
 LinEq1:  Iter=  2 NonCon=     1 RMS=6.02D-05 Max=7.57D-04 NDo=     1
 LinEq1:  Iter=  3 NonCon=     1 RMS=5.73D-05 Max=7.12D-04 NDo=     1
 LinEq1:  Iter=  4 NonCon=     1 RMS=3.38D-05 Max=3.78D-04 NDo=     1
 LinEq1:  Iter=  5 NonCon=     1 RMS=1.62D-05 Max=1.80D-04 NDo=     1
 LinEq1:  Iter=  6 NonCon=     1 RMS=9.43D-06 Max=1.22D-04 NDo=     1
 LinEq1:  Iter=  7 NonCon=     1 RMS=5.69D-06 Max=1.10D-04 NDo=     1
 LinEq1:  Iter=  8 NonCon=     1 RMS=2.89D-06 Max=3.55D-05 NDo=     1
 LinEq1:  Iter=  9 NonCon=     1 RMS=1.50D-06 Max=1.34D-05 NDo=     1
 LinEq1:  Iter= 10 NonCon=     1 RMS=5.42D-07 Max=5.07D-06 NDo=     1
 LinEq1:  Iter= 11 NonCon=     1 RMS=1.12D-07 Max=1.15D-06 NDo=     1
 LinEq1:  Iter= 12 NonCon=     1 RMS=2.59D-08 Max=2.64D-07 NDo=     1
 LinEq1:  Iter= 13 NonCon=     1 RMS=3.69D-09 Max=2.31D-08 NDo=     1
 LinEq1:  Iter= 14 NonCon=     0 RMS=6.61D-10 Max=5.13D-09 NDo=     1
 Linear equations converged to 3.074D-09 3.074D-08 after    14 iterations.
 Angle between quadratic step and gradient=  30.08 degrees.
     ILin= 1 X=0.000D+00 Y=-1.913292878998D+02 DE= 0.00D+00 F= -5.26D-04
     ILin= 2 X=1.000D+00 Y=-1.913295508036D+02 DE=-2.63D-04 F= -1.29D-07
     Reject lnstep minimum 1.000D+00 FVal=-1.913295508036D+02 Lims=  0.00D+00  1.00D+00
     ILin= 3 X=1.900D+00 Y=-1.913293385379D+02 DE=-5.06D-05 F=  4.71D-04
     An  expanding polynomial of degree  3 produced  1.0008
     Minimum is close to point  2 DX=  7.65D-04 DF= -1.53D-10 DXR=  7.64D-04 DFR=  5.83D-07 which will be used.
 Iteration  12 EE= -191.329550803573     Delta-E=       -0.000262903762 Grad=2.567D-04 Max rot=    0.0043 deg.
 QCNR:  CnvC1=2.57D-09 CnvC2=2.57D-08
 LinEq1:  Iter=  0 NonCon=     1 RMS=9.62D-06 Max=1.86D-04 NDo=     1
 LinEq1:  Iter=  1 NonCon=     1 RMS=4.67D-06 Max=4.40D-05 NDo=     1
 LinEq1:  Iter=  2 NonCon=     1 RMS=2.16D-06 Max=3.30D-05 NDo=     1
 LinEq1:  Iter=  3 NonCon=     1 RMS=2.31D-06 Max=3.00D-05 NDo=     1
 LinEq1:  Iter=  4 NonCon=     1 RMS=1.43D-06 Max=1.11D-05 NDo=     1
 LinEq1:  Iter=  5 NonCon=     1 RMS=6.01D-07 Max=8.48D-06 NDo=     1
 LinEq1:  Iter=  6 NonCon=     1 RMS=3.01D-07 Max=4.86D-06 NDo=     1
 LinEq1:  Iter=  7 NonCon=     1 RMS=1.83D-07 Max=2.61D-06 NDo=     1
 LinEq1:  Iter=  8 NonCon=     1 RMS=1.08D-07 Max=1.44D-06 NDo=     1
 LinEq1:  Iter=  9 NonCon=     1 RMS=3.34D-08 Max=2.31D-07 NDo=     1
 LinEq1:  Iter= 10 NonCon=     1 RMS=6.97D-09 Max=6.06D-08 NDo=     1
 LinEq1:  Iter= 11 NonCon=     0 RMS=1.36D-09 Max=1.41D-08 NDo=     1
 Linear equations converged to 2.567D-09 2.567D-08 after    11 iterations.
 Angle between quadratic step and gradient=  49.38 degrees.
     ILin= 1 X=0.000D+00 Y=-1.913295508036D+02 DE= 0.00D+00 F= -6.50D-08
     ILin= 2 X=1.000D+00 Y=-1.913295508361D+02 DE=-3.25D-08 F=  3.13D-12
     Accept linear search using points  1 and  2.
     An  expanding polynomial of degree  2 produced  1.0000
     Minimum is close to point  2 DX= -4.82D-05 DF=  0.00D+00 DXR=  4.82D-05 DFR=  0.00D+00 which will be used.
 Iteration  13 EE= -191.329550836050     Delta-E=       -0.000000032478 Grad=9.511D-08 Max rot=    0.0000 deg.
 Rotation gradient small -- convergence achieved.
 SCF Done:  E(UB3LYP) =  -191.329550836     a.u. after   13 cycles
            Convg  =    0.9511D-07                    54 Fock formations.
              S**2 =  0.7522                  -V/T =  2.0085
 <Sx>= 0.0000 <Sy>= 0.0000 <Sz>= 0.5000 <S**2>= 0.7522 S= 0.5011
 <L.S>= 0.000000000000E+00
 Annihilation of the first spin contaminant:
 S**2 before annihilation     0.7522,   after     0.7500
 Leave Link  508 at Wed Jan  6 16:09:39 2021, MaxMem=    33554432 cpu:        35.7
 (Enter /apps/applications/gaussian/G09.D01/2/default/g09/l801.exe)
 DoSCS=F DFT=T ScalE2(SS,OS)=  1.000000  1.000000
 Range of M.O.s used for correlation:     1    46
 NBasis=    46 NAE=    16 NBE=    15 NFC=     0 NFV=     0
 NROrb=     46 NOA=    16 NOB=    15 NVA=    30 NVB=    31

 **** Warning!!: The largest alpha MO coefficient is  0.11108433D+02


 **** Warning!!: The largest beta MO coefficient is  0.11201176D+02

 Leave Link  801 at Wed Jan  6 16:09:39 2021, MaxMem=    33554432 cpu:         0.1
 (Enter /apps/applications/gaussian/G09.D01/2/default/g09/l1101.exe)
 Using compressed storage, NAtomX=     9.
 Will process     10 centers per pass.
 Leave Link 1101 at Wed Jan  6 16:09:39 2021, MaxMem=    33554432 cpu:         0.1
 (Enter /apps/applications/gaussian/G09.D01/2/default/g09/l1102.exe)
 Symmetrizing basis deriv contribution to polar:
 IMax=3 JMax=2 DiffMx= 0.00D+00
 Leave Link 1102 at Wed Jan  6 16:09:39 2021, MaxMem=    33554432 cpu:         0.1
 (Enter /apps/applications/gaussian/G09.D01/2/default/g09/l1110.exe)
 Forming Gx(P) for the SCF density, NAtomX=     9.
 Integral derivatives from FoFJK, PRISM(SPDF).
 Do as many integral derivatives as possible in FoFJK.
 G2DrvN: MDV=      33554256.
 G2DrvN: will do    10 centers at a time, making    1 passes.
 Calling FoFCou, ICntrl=  3107 FMM=F I1Cent=   0 AccDes= 0.00D+00.
 FoFJK:  IHMeth= 1 ICntrl=    3107 DoSepK=F KAlg= 0 I1Cent=   0 FoldK=F
 IRaf=         0 NMat=   1 IRICut=       1 DoRegI=T DoRafI=F ISym2E= 0.
 FoFCou: FMM=F IPFlag=           0 FMFlag=      100000 FMFlg1=           0
         NFxFlg=           0 DoJE=F BraDBF=F KetDBF=F FulRan=T
         wScrn=  0.000000 ICntrl=    3107 IOpCl=  1 I1Cent=           0 NGrid=           0
         NMat0=    1 NMatS0=      1 NMatT0=    0 NMatD0=    1 NMtDS0=    0 NMtDT0=    0
 Symmetry not used in FoFCou.
 End of G2Drv F.D. properties file   721 does not exist.
 End of G2Drv F.D. properties file   722 does not exist.
 End of G2Drv F.D. properties file   788 does not exist.
 Leave Link 1110 at Wed Jan  6 16:09:49 2021, MaxMem=    33554432 cpu:        10.0
 (Enter /apps/applications/gaussian/G09.D01/2/default/g09/l1002.exe)
 Minotr:  UHF open shell wavefunction.
          IDoAtm=111111111
          Direct CPHF calculation.
          Differentiating once with respect to electric field.
                with respect to dipole field.
          Differentiating once with respect to nuclear coordinates.
          Requested convergence is 1.0D-08 RMS, and 1.0D-07 maximum.
          Secondary convergence is 1.0D-12 RMS, and 1.0D-12 maximum.
          NewPWx=T KeepS1=F KeepF1=F KeepIn=T MapXYZ=F SortEE=F KeepMc=T.
          MDV=      33554246 using IRadAn=       2.
 Generate precomputed XC quadrature information.
 Keep R1 and R2 ints in memory in canonical form, NReq=2035813.
 FoFCou: FMM=F IPFlag=           0 FMFlag=           0 FMFlg1=           0
         NFxFlg=           0 DoJE=F BraDBF=F KetDBF=F FulRan=T
         wScrn=  0.000000 ICntrl=     600 IOpCl=  0 I1Cent=           0 NGrid=           0
         NMat0=    1 NMatS0=   1081 NMatT0=    0 NMatD0=    1 NMtDS0=    0 NMtDT0=    0
 Symmetry not used in FoFCou.
          Solving linear equations simultaneously, MaxMat=       0.
          There are    30 degrees of freedom in the 1st order CPHF.  IDoFFX=6 NUNeed=     3.
     27 vectors produced by pass  0 Test12= 3.15D-15 3.33D-09 XBig12= 9.97D+01 6.15D+00.
 AX will form    27 AO Fock derivatives at one time.
     27 vectors produced by pass  1 Test12= 3.15D-15 3.33D-09 XBig12= 6.12D+00 6.46D-01.
     27 vectors produced by pass  2 Test12= 3.15D-15 3.33D-09 XBig12= 9.74D-02 6.09D-02.
     27 vectors produced by pass  3 Test12= 3.15D-15 3.33D-09 XBig12= 2.45D-04 2.83D-03.
     27 vectors produced by pass  4 Test12= 3.15D-15 3.33D-09 XBig12= 7.75D-07 2.19D-04.
     22 vectors produced by pass  5 Test12= 3.15D-15 3.33D-09 XBig12= 2.07D-09 6.82D-06.
      5 vectors produced by pass  6 Test12= 3.15D-15 3.33D-09 XBig12= 3.51D-12 3.03D-07.
      3 vectors produced by pass  7 Test12= 3.15D-15 3.33D-09 XBig12= 1.03D-14 1.43D-08.
 InvSVY:  IOpt=1 It=  1 EMax= 7.11D-15
 Solved reduced A of dimension   165 with    30 vectors.
 FullF1:  Do perturbations    1 to     3.
 Isotropic polarizability for W=    0.000000       31.66 Bohr**3.
 End of Minotr F.D. properties file   721 does not exist.
 End of Minotr F.D. properties file   722 does not exist.
 End of Minotr F.D. properties file   788 does not exist.
 Leave Link 1002 at Wed Jan  6 16:09:58 2021, MaxMem=    33554432 cpu:         8.8
 (Enter /apps/applications/gaussian/G09.D01/2/default/g09/l701.exe)
 Compute integral second derivatives.
 ... and contract with generalized density number  0.
 Leave Link  701 at Wed Jan  6 16:09:58 2021, MaxMem=    33554432 cpu:         0.1
 (Enter /apps/applications/gaussian/G09.D01/2/default/g09/l702.exe)
 L702 exits ... SP integral derivatives will be done elsewhere.
 Leave Link  702 at Wed Jan  6 16:09:58 2021, MaxMem=    33554432 cpu:         0.1
 (Enter /apps/applications/gaussian/G09.D01/2/default/g09/l703.exe)
 Compute integral second derivatives, UseDBF=F ICtDFT=           0.
 Integral derivatives from FoFJK, PRISM(SPDF).
 Calling FoFJK, ICntrl=    100127 FMM=F ISym2X=0 I1Cent= 0 IOpClX= 1 NMat=1 NMatS=1 NMatT=0.
 FoFJK:  IHMeth= 1 ICntrl=  100127 DoSepK=F KAlg= 0 I1Cent=   0 FoldK=F
 IRaf=         0 NMat=   1 IRICut=       1 DoRegI=T DoRafI=F ISym2E= 0.
 FoFCou: FMM=F IPFlag=           0 FMFlag=      100000 FMFlg1=         800
         NFxFlg=           0 DoJE=F BraDBF=F KetDBF=F FulRan=T
         wScrn=  0.000000 ICntrl=  100127 IOpCl=  1 I1Cent=           0 NGrid=           0
         NMat0=    1 NMatS0=      1 NMatT0=    0 NMatD0=    1 NMtDS0=    0 NMtDT0=    0
 Symmetry not used in FoFCou.
 Leave Link  703 at Wed Jan  6 16:10:07 2021, MaxMem=    33554432 cpu:         8.7
 (Enter /apps/applications/gaussian/G09.D01/2/default/g09/l716.exe)
 Dipole        =-1.27352560D-01 2.67316994D-01 1.85452261D-01
 Polarizability= 2.56745110D+01-2.32966240D+00 4.13471957D+01
                -1.02920470D+01 7.39874081D+00 2.79434186D+01
 -------------------------------------------------------------------
 Center     Atomic                   Forces (Hartrees/Bohr)
 Number     Number              X              Y              Z
 -------------------------------------------------------------------
      1        6           0.006004912   -0.016231997   -0.009319875
      2        6          -0.004477320    0.004043585    0.005346516
      3        1           0.001961838    0.005899214   -0.000833892
      4        1          -0.001839964    0.001698459   -0.000518291
      5        1           0.000838304    0.001179621    0.002113403
      6        6           0.004681789   -0.010417442   -0.006807115
      7        1          -0.005278102    0.013406368    0.008017984
      8        8          -0.002015382    0.000864560    0.002201623
      9        1           0.000123925   -0.000442369   -0.000200355
 -------------------------------------------------------------------
 Cartesian Forces:  Max     0.016231997 RMS     0.005970257
 Force constants in Cartesian coordinates: 
                1             2             3             4             5 
      1  0.529508D+00
      2 -0.937993D-03  0.520262D+00
      3 -0.266883D-02 -0.346814D-03  0.529680D+00
      4 -0.933268D-01  0.612044D-01  0.383860D-01  0.254118D+00
      5  0.653683D-01 -0.200185D+00 -0.927403D-01 -0.376325D+00  0.945958D+00
      6  0.392143D-01 -0.884752D-01 -0.124852D+00 -0.232535D+00  0.550102D+00
      7 -0.102442D+00 -0.989890D-01  0.339832D-01  0.632473D-02  0.132299D-01
      8 -0.961685D-01 -0.220401D+00  0.639066D-01 -0.884776D-02 -0.318677D-01
      9  0.345240D-01  0.667360D-01 -0.716126D-01 -0.103663D-01 -0.193051D-01
     10 -0.287714D+00  0.252169D-01 -0.377151D-01 -0.120009D-01  0.662944D-02
     11  0.250225D-01 -0.501822D-01  0.280168D-02  0.337652D-01 -0.994008D-02
     12 -0.378476D-01  0.285001D-02 -0.526848D-01  0.231388D-01 -0.368464D-02
     13 -0.534193D-01  0.594460D-02 -0.409159D-01 -0.803093D-04 -0.142691D-02
     14  0.595718D-02 -0.516073D-01  0.296478D-01 -0.428888D-02 -0.140239D-02
     15 -0.408096D-01  0.294184D-01 -0.285520D+00  0.897920D-03 -0.500592D-02
     16  0.636540D-02  0.344562D-02  0.122332D-02 -0.158501D+00  0.286359D+00
     17  0.853681D-03  0.135423D-02 -0.196365D-02  0.296191D+00 -0.717066D+00
     18  0.713778D-03 -0.459797D-02  0.526207D-02  0.182115D+00 -0.425592D+00
     19  0.498094D-02  0.149362D-02  0.107681D-02  0.395556D-02 -0.936115D-03
     20  0.115085D-02  0.225939D-02 -0.186057D-02 -0.177739D-02  0.721157D-02
     21  0.100951D-02 -0.220962D-02  0.428727D-02 -0.929933D-03  0.171094D-02
     22 -0.398391D-02  0.114984D-02  0.550045D-02 -0.494632D-04  0.655236D-02
     23 -0.124278D-02 -0.334276D-02  0.355809D-03  0.900156D-04  0.110126D-01
     24  0.503474D-02 -0.207260D-02 -0.432186D-02 -0.944327D-03 -0.424703D-02
     25  0.318475D-04  0.147201D-02  0.113011D-02 -0.439238D-03  0.549051D-03
     26 -0.322589D-05  0.184249D-02  0.199403D-03 -0.108287D-04 -0.371998D-02
     27  0.829773D-03 -0.130212D-02 -0.238778D-03  0.237778D-03 -0.123780D-02
                6             7             8             9            10 
      6  0.443974D+00
      7 -0.599270D-02  0.113789D+00
      8  0.311844D-02  0.106018D+00  0.249895D+00
      9  0.454610D-02 -0.421617D-01 -0.684589D-01  0.809166D-01
     10  0.302973D-02 -0.159319D-01  0.174069D-02 -0.349239D-02  0.320316D+00
     11  0.218816D-02 -0.287221D-01  0.468190D-02 -0.623507D-02 -0.319965D-01
     12  0.563247D-04  0.110666D-01 -0.174965D-02  0.841867D-03  0.394164D-01
     13  0.162038D-01  0.246987D-02 -0.106945D-02  0.166053D-01 -0.536285D-02
     14 -0.355562D-01  0.718869D-02 -0.246936D-02  0.287005D-01 -0.447961D-03
     15 -0.204023D-01 -0.235783D-02  0.163558D-02 -0.104114D-01 -0.110643D-02
     16  0.180161D+00 -0.751849D-03  0.950353D-03  0.209703D-02  0.852531D-03
     17 -0.435563D+00  0.851163D-03  0.443715D-03 -0.100192D-02 -0.119318D-02
     18 -0.306382D+00  0.207599D-02 -0.109630D-02 -0.120318D-02 -0.886396D-03
     19 -0.762649D-03 -0.351051D-03  0.515215D-03  0.482649D-03  0.228251D-03
     20  0.256500D-02 -0.315102D-03  0.424109D-03  0.398926D-03  0.515500D-04
     21  0.467096D-02  0.318361D-03 -0.443625D-03 -0.387336D-03  0.921882D-04
     22  0.348109D-03 -0.259070D-02 -0.240390D-02  0.309204D-02 -0.359257D-03
     23  0.229811D-02  0.252008D-02 -0.171580D-02 -0.306215D-02 -0.107852D-03
     24 -0.922256D-03  0.405865D-02  0.191877D-02 -0.278106D-02  0.599346D-03
     25  0.333990D-03 -0.516803D-03 -0.734482D-03 -0.780633D-03 -0.271958D-04
     26 -0.677264D-03 -0.178149D-02  0.100933D-02  0.222777D-02  0.106908D-03
     27 -0.688756D-03 -0.990492D-03  0.116907D-02  0.909202D-04  0.626109D-04
               11            12            13            14            15 
     11  0.576557D-01
     12  0.429024D-03  0.574137D-01
     13  0.441263D-02 -0.348460D-01  0.569856D-01
     14 -0.166654D-02  0.319942D-02 -0.896507D-02  0.586798D-01
     15  0.140249D-02 -0.470963D-02  0.431742D-01 -0.281712D-01  0.319692D+00
     16 -0.862226D-03 -0.587850D-03  0.451371D-03  0.127095D-02 -0.399660D-03
     17 -0.383038D-03 -0.106239D-02  0.956625D-03 -0.120373D-02  0.939263D-03
     18 -0.133799D-02  0.526427D-05 -0.227206D-03  0.559836D-03  0.122394D-02
     19 -0.944834D-03 -0.652198D-03 -0.976523D-04  0.385398D-03  0.157697D-03
     20 -0.130656D-03 -0.135582D-03  0.216030D-03 -0.409467D-03 -0.194308D-03
     21 -0.418236D-03 -0.207398D-03 -0.422977D-03  0.929025D-03  0.396951D-03
     22 -0.555984D-03  0.367631D-03 -0.846603D-03 -0.717993D-03  0.476270D-03
     23 -0.837814D-04  0.233165D-03 -0.180737D-03 -0.210869D-04  0.663699D-04
     24  0.760521D-03 -0.676986D-03  0.441993D-03  0.540742D-03 -0.252119D-03
     25 -0.118625D-03 -0.557788D-04 -0.100133D-03 -0.382315D-03 -0.325207D-04
     26  0.487028D-04 -0.793526D-04  0.112276D-03  0.100123D-03 -0.906597D-04
     27  0.409412D-03 -0.383068D-04 -0.131575D-04  0.150079D-03 -0.173717D-04
               16            17            18            19            20 
     16  0.215936D+00
     17 -0.411877D+00  0.104362D+01
     18 -0.255118D+00  0.616124D+00  0.426443D+00
     19 -0.643485D-01  0.120152D+00  0.723662D-01  0.555543D-01
     20  0.121158D+00 -0.318942D+00 -0.182959D+00 -0.120346D+00  0.309859D+00
     21  0.725641D-01 -0.181938D+00 -0.126312D+00 -0.727392D-01  0.182140D+00
     22 -0.258796D-03 -0.570981D-02 -0.437350D-03 -0.871961D-05  0.251512D-03
     23  0.147669D-02 -0.798714D-02 -0.315294D-02 -0.230217D-03 -0.238669D-05
     24  0.100492D-02  0.414616D-02  0.236869D-03 -0.276112D-03 -0.209718D-03
     25  0.255572D-03 -0.224511D-03 -0.601994D-03  0.868425D-04 -0.389442D-03
[...]
 Total                   45.347             18.835             75.672
 Electronic               0.000              0.000              1.377
 Translational            0.889              2.981             38.044
 Rotational               0.889              2.981             24.574
 Vibrational             43.570             12.873             11.676
 Vibration     1          0.607              1.937              3.191
 Vibration     2          0.617              1.905              2.704
 Vibration     3          0.653              1.793              1.868
 Vibration     4          0.698              1.659              1.374
 Vibration     5          0.729              1.569              1.153
 Vibration     6          0.978              0.993              0.419
                       Q            Log10(Q)             Ln(Q)
 Total Bot       0.730739D-17        -17.136238        -39.457645
 Total V=0       0.225035D+14         13.352250         30.744691
 Vib (Bot)       0.412028D-29        -29.385073        -67.661631
 Vib (Bot)    1  0.178639D+01          0.251977          0.580197
 Vib (Bot)    2  0.137520D+01          0.138365          0.318598
 Vib (Bot)    3  0.850738D+00         -0.070204         -0.161651
 Vib (Bot)    4  0.614861D+00         -0.211223         -0.486359
 Vib (Bot)    5  0.521537D+00         -0.282715         -0.650976
 Vib (Bot)    6  0.236910D+00         -0.625417         -1.440076
 Vib (V=0)       0.126886D+02          1.103415          2.540706
 Vib (V=0)    1  0.235505D+01          0.371999          0.856560
 Vib (V=0)    2  0.196327D+01          0.292981          0.674613
 Vib (V=0)    3  0.148679D+01          0.172250          0.396620
 Vib (V=0)    4  0.129250D+01          0.111430          0.256577
 Vib (V=0)    5  0.122250D+01          0.087247          0.200895
 Vib (V=0)    6  0.105329D+01          0.022547          0.051915
 Electronic      0.200000D+01          0.301030          0.693147
 Translational   0.169300D+08          7.228656         16.644596
 Rotational      0.523780D+05          4.719149         10.866241
 
                                                    Gaussian input prepared by AS
 E
                                                             IR Spectrum
 
     3      3     33 3                                2                    11  1            11                                       
     4      3     11 0                                1                    55  4            10     9       6 66         33  2  11    
     9      2     32 6                                6                    44  6            19     1       9 51         50  3  41    
     1      4     07 2                                6                    60  9            31     5       8 08         38  1  85    
 
     X      X     XX X                                X                    XX  X            XX     X       X XX         XX  X  XX    
     X      X      X X                                X                    XX                              X XX         XX  X  XX    
     X               X                                X                    X                               X XX          X  X  XX    
     X                                                X                                                    X XX             X  XX    
     X                                                X                                                    X XX             X  X     
     X                                                X                                                    X XX             X  X     
     X                                                X                                                    X XX             X  X     
     X                                                X                                                    X XX             X  X     
     X                                                                                                     X XX                X     
     X                                                                                                     X XX                X     
     X                                                                                                     X XX                X     
     X                                                                                                     X XX                X     
     X                                                                                                     X XX                X     
     X                                                                                                     X XX                      
     X                                                                                                     X XX                      
     X                                                                                                     X XX                      
     X                                                                                                       XX                      
     X                                                                                                       XX                      
                                                                                                              X                      
                                                                                                              X                      
 
 -------------------------------------------------------------------
 Center     Atomic                   Forces (Hartrees/Bohr)
 Number     Number              X              Y              Z
 -------------------------------------------------------------------
      1        6          -0.000001151   -0.000002017   -0.000000874
      2        6           0.000001291    0.000000151    0.000001008
      3        1          -0.000000657    0.000001730   -0.000000627
      4        1          -0.000002418   -0.000001251   -0.000001485
      5        1          -0.000000129   -0.000001405    0.000000929
      6        6           0.000005805    0.000000827    0.000002371
      7        1           0.000003521    0.000000564    0.000001643
      8        8           0.000008076    0.000008300    0.000018216
      9        1          -0.000014338   -0.000006899   -0.000021181
 -------------------------------------------------------------------
 Cartesian Forces:  Max     0.000021181 RMS     0.000006800
 Force constants in Cartesian coordinates: 
                1             2             3             4             5 
      1  0.540544D+00
      2  0.228057D-01  0.517308D+00
      3  0.113797D-01 -0.278457D-01  0.533435D+00
      4 -0.101467D+00  0.619226D-01  0.368102D-01  0.278832D+00
      5  0.724048D-01 -0.162067D+00 -0.804265D-01 -0.416849D+00  0.902128D+00
      6  0.356977D-01 -0.683347D-01 -0.107295D+00 -0.192490D+00  0.457124D+00
      7 -0.178719D+00 -0.108563D+00 -0.790541D-01  0.143437D-01  0.112542D-01
      8 -0.107847D+00 -0.132378D+00 -0.645350D-01 -0.151490D-01 -0.233877D-01
      9 -0.775925D-01 -0.638918D-01 -0.922610D-01 -0.976370D-02 -0.130391D-01
     10 -0.118380D+00  0.789670D-01 -0.890198D-01 -0.121892D-01  0.107453D-01
     11  0.791168D-01 -0.128900D+00  0.955136D-01  0.186379D-01 -0.225377D-01
     12 -0.900385D-01  0.961872D-01 -0.155190D+00  0.141832D-01 -0.129368D-01
     13 -0.143852D+00 -0.589546D-01  0.108831D+00 -0.129587D-01 -0.144055D-02
     14 -0.586652D-01 -0.874241D-01  0.686848D-01  0.195196D-01  0.671795D-02
     15  0.108636D+00  0.687737D-01 -0.177173D+00  0.117081D-01  0.119533D-02
     16  0.683227D-02  0.587182D-02 -0.128120D-03 -0.168988D+00  0.306328D+00
     17 -0.648656D-02 -0.522005D-02  0.677136D-02  0.333414D+00 -0.726085D+00
     18  0.654697D-04 -0.705599D-02  0.601904D-02  0.144225D+00 -0.330061D+00
     19  0.448035D-02  0.195270D-02  0.148822D-02  0.417672D-02 -0.582673D-02
     20  0.929701D-03  0.194322D-02 -0.677661D-03 -0.158818D-03  0.460821D-02
     21  0.165810D-02 -0.192677D-02  0.401727D-02 -0.140711D-02  0.498020D-02
     22 -0.959400D-02 -0.376032D-02  0.898662D-02 -0.183450D-02  0.243110D-01
     23 -0.975928D-03 -0.348495D-02  0.213350D-02 -0.222347D-02  0.208077D-01
     24  0.958697D-02  0.435772D-02 -0.101752D-01 -0.203151D-02 -0.232549D-01
     25  0.155479D-03 -0.241760D-03  0.706266D-03  0.847056D-04 -0.926883D-03
     26 -0.128218D-02  0.222965D-03  0.381629D-03  0.885619D-03 -0.184276D-03
     27  0.607289D-03 -0.263612D-03 -0.137634D-02 -0.123450D-02 -0.358105D-02
                6             7             8             9            10 
      6  0.315542D+00
      7  0.103963D-01  0.195205D+00
      8 -0.167409D-01  0.115695D+00  0.152012D+00
      9 -0.126270D-01  0.849928D-01  0.749824D-01  0.101208D+00
     10 -0.632767D-02 -0.141327D-01  0.138718D-01 -0.158573D-01  0.129068D+00
     11  0.129344D-01 -0.112737D-01  0.120062D-01 -0.126321D-01 -0.906478D-01
     12  0.136172D-01 -0.750749D-02  0.922016D-02 -0.107411D-01  0.972111D-01
     13  0.117956D-01 -0.140934D-01 -0.799731D-02  0.175244D-01  0.128443D-01
     14 -0.230208D-01 -0.100169D-01 -0.758943D-02  0.154054D-01 -0.133352D-01
     15 -0.160393D-01 -0.941201D-02 -0.487344D-02  0.121090D-01  0.134902D-01
     16  0.145935D+00 -0.201595D-02  0.109142D-02  0.707856D-03  0.493748D-03
     17 -0.360680D+00  0.186843D-02 -0.328015D-03 -0.104887D-02  0.758716D-03
     18 -0.192073D+00  0.953681D-03 -0.553052D-03  0.164482D-03  0.469263D-03
     19 -0.184809D-02 -0.701163D-03  0.860560D-03  0.539302D-03  0.260794D-03
     20  0.378341D-03 -0.104270D-03  0.221437D-03  0.823612D-04 -0.388406D-04
     21  0.397014D-02 -0.376542D-03  0.211646D-03  0.347722D-03  0.371309D-03
     22 -0.813758D-02  0.466513D-03 -0.425520D-03 -0.609893D-03  0.266771D-02
     23 -0.635793D-02  0.131771D-02 -0.637138D-03 -0.265817D-03 -0.786222D-03
     24 -0.230506D-02  0.571534D-04  0.179536D-02  0.845432D-03 -0.484030D-03
     25  0.497879D-02 -0.353104D-03 -0.997382D-04  0.590809D-04 -0.632013D-03
     26  0.469834D-02 -0.177286D-03  0.810405D-04  0.407591D-03  0.465197D-03
     27 -0.279042D-02 -0.498053D-04  0.492807D-03  0.954589D-03  0.146949D-03
               11            12            13            14            15 
     11  0.147878D+00
     12 -0.101937D+00  0.170347D+00
     13  0.611192D-02 -0.138013D-01  0.156656D+00
     14 -0.757662D-02  0.120030D-01  0.626840D-01  0.954462D-01
     15  0.736800D-02 -0.150604D-01 -0.125226D+00 -0.733700D-01  0.195143D+00
     16  0.541959D-03  0.477009D-03  0.123943D-02 -0.187437D-03 -0.828098D-03
     17 -0.276319D-03 -0.162531D-02 -0.412589D-03 -0.202362D-03  0.630632D-03
     18 -0.115133D-02 -0.193979D-02 -0.680552D-03  0.250085D-03  0.134627D-02
     19 -0.341170D-03 -0.455407D-03  0.172707D-03 -0.454418D-03 -0.194547D-03
     20  0.144258D-03  0.292353D-04  0.128542D-03 -0.393889D-03 -0.178384D-03
     21 -0.830421D-03 -0.651900D-03 -0.152171D-03  0.496518D-03  0.241512D-03
     22 -0.261254D-02 -0.507840D-03  0.506467D-03  0.225786D-03  0.186117D-02
     23 -0.653498D-03 -0.629876D-03 -0.154431D-03  0.110407D-02  0.442665D-03
     24  0.102069D-02 -0.785328D-05  0.143782D-02 -0.667492D-03 -0.858379D-03
     25  0.466500D-03  0.439135D-03 -0.514894D-03  0.229771D-03 -0.341017D-04
     26 -0.837784D-04 -0.310668D-03  0.349338D-04 -0.818098D-04  0.114522D-04
     27 -0.285863D-03 -0.373352D-03  0.271614D-03  0.218521D-03  0.291659D-03
               16            17            18            19            20 
     16  0.242872D+00
     17 -0.445160D+00  0.105661D+01
     18 -0.205053D+00  0.471649D+00  0.269197D+00
     19 -0.832485D-01  0.135221D+00  0.616978D-01  0.749116D-01
     20  0.130304D+00 -0.297289D+00 -0.133431D+00 -0.131141D+00  0.290960D+00
     21  0.611706D-01 -0.137442D+00 -0.856524D-01 -0.614336D-01  0.133659D+00
     22  0.274021D-02 -0.199968D-01 -0.198284D-02 -0.297661D-03 -0.131144D-03
     23  0.104840D-02 -0.259438D-01 -0.153852D-02 -0.178185D-03  0.224732D-03
     24 -0.167939D-02  0.205914D-01  0.128654D-02  0.331118D-03 -0.118020D-03
     25  0.745485D-04  0.793929D-03  0.304750D-03  0.245180D-03  0.211543D-03
     26  0.162160D-03 -0.126891D-02  0.189190D-02 -0.924951D-04 -0.419003D-03
     27 -0.601937D-03  0.115455D-02  0.165229D-02 -0.124862D-03  0.256553D-03
               21            22            23            24            25 
     21  0.778815D-01
     22  0.549515D-03  0.635167D-01
     23  0.586500D-03  0.601800D-01  0.672636D-01
     24  0.385530D-04  0.121297D+00  0.120686D+00  0.302613D+00
     25 -0.380175D-03 -0.581714D-01 -0.582279D-01 -0.128516D+00  0.591115D-01
     26  0.265830D-03 -0.577904D-01 -0.586807D-01 -0.124411D+00  0.577945D-01
     27 -0.192360D-03 -0.121457D+00 -0.115057D+00 -0.291437D+00  0.122442D+00
               26            27 
     26  0.604145D-01
     27  0.117065D+00  0.293271D+00
 Leave Link  716 at Wed Jan  6 16:29:36 2021, MaxMem=    33554432 cpu:         0.1
 (Enter /apps/applications/gaussian/G09.D01/2/default/g09/l9999.exe)
 1\1\GINC-DC1S0B3B\Freq\UB3LYP\3-21G\C3H5O1(2)\CHMRSH\06-Jan-2021\0\\#P
  b3lyp/3-21G scf=qc opt(calcall, ts, noeigentest, cartesian,maxcycle=1
 00) NoSymm\\Gaussian input prepared by ASE\\0,2\C,0.6615452954,-0.5801
 428603,-0.8738551205\C,0.0074710797,0.505961982,-0.1387506782\H,-0.096
 9416022,-1.2178702815,-1.3375279378\H,1.2394085126,-1.2056549366,-0.18
 72733053\H,1.3250491014,-0.179488246,-1.6475791223\C,-0.4204975095,1.5
 472143832,0.324750744\H,-0.8360312448,2.4277951686,0.7479587237\O,-1.1
 277719635,-0.8280479552,1.1219637952\H,-0.7522316691,-0.469767254,1.99
 03129013\\Version=ES64L-G09RevD.01\HF=-191.332111\S2=0.75876\S2-1=0.\S
 2A=0.750028\RMSD=0.000e+00\RMSF=6.800e-06\ZeroPoint=0.0662841\Thermal=
 0.0722656\Dipole=0.495572,0.229915,0.2233959\DipoleDeriv=0.083489,0.01
 84398,-0.0706271,0.0297527,0.0596568,-0.0422876,-0.0535158,-0.0386496,
 0.1043008,0.0289507,-0.0820661,-0.0576439,-0.3223056,-0.2049128,0.4097
 647,-0.1052996,0.1224176,0.0837028,0.0170906,-0.0511472,-0.0275117,-0.
 0353582,0.0435957,-0.0725017,-0.0168497,-0.0525803,0.0588517,0.0369881
 ,0.0604822,-0.0262041,0.0776584,0.0384303,0.0245292,-0.0468768,0.05724
 04,0.0092933,0.0150793,-0.0111527,0.1051965,-0.0169567,0.0265229,0.024
 2404,0.1044263,0.0145239,-0.0169487,-0.356724,-0.038208,0.1010038,0.16
 44369,-0.2265877,-0.1926503,0.117794,-0.0139596,-0.4153706,0.2228859,0
 .0077076,0.0184711,-0.0013863,0.2203179,-0.0006274,0.0093911,0.0003074
 ,0.2159272,-0.2793314,0.1417616,0.0739753,0.1593093,-0.1859473,-0.0351
 25,0.1241857,0.0307696,-0.055367,0.2315717,-0.0458172,-0.1166599,-0.05
 51506,0.2289243,-0.1153423,-0.1332553,-0.1200695,0.0156106\Polar=24.05
 54276,-1.6743237,45.4178785,-8.0683681,1.0902788,31.8725227\PG=C01 [X(
 C3H5O1)]\NImag=1\\0.54054416,0.02280565,0.51730817,0.01137970,-0.02784
 570,0.53343463,-0.10146687,0.06192259,0.03681016,0.27883217,0.07240481
 ,-0.16206698,-0.08042651,-0.41684871,0.90212755,0.03569766,-0.06833474
 ,-0.10729502,-0.19249012,0.45712367,0.31554235,-0.17871907,-0.10856315
 ,-0.07905409,0.01434372,0.01125420,0.01039634,0.19520512,-0.10784711,-
 0.13237802,-0.06453495,-0.01514904,-0.02338772,-0.01674091,0.11569490,
 0.15201166,-0.07759248,-0.06389181,-0.09226105,-0.00976370,-0.01303914
 ,-0.01262696,0.08499277,0.07498238,0.10120787,-0.11838030,0.07896703,-
 0.08901983,-0.01218918,0.01074528,-0.00632767,-0.01413266,0.01387184,-
 0.01585734,0.12906756,0.07911684,-0.12890023,0.09551358,0.01863793,-0.
 02253775,0.01293435,-0.01127365,0.01200619,-0.01263211,-0.09064779,0.1
 4787775,-0.09003850,0.09618716,-0.15519014,0.01418322,-0.01293684,0.01
 361723,-0.00750749,0.00922016,-0.01074109,0.09721114,-0.10193689,0.170
 34727,-0.14385202,-0.05895456,0.10883106,-0.01295874,-0.00144055,0.011
 79555,-0.01409340,-0.00799731,0.01752441,0.01284434,0.00611192,-0.0138
 0126,0.15665611,-0.05866523,-0.08742414,0.06868476,0.01951957,0.006717
 95,-0.02302083,-0.01001687,-0.00758943,0.01540542,-0.01333522,-0.00757
 662,0.01200303,0.06268404,0.09544623,0.10863579,0.06877375,-0.17717317
 ,0.01170806,0.00119533,-0.01603929,-0.00941201,-0.00487344,0.01210900,
 0.01349022,0.00736800,-0.01506037,-0.12522648,-0.07337001,0.19514277,0
 .00683227,0.00587182,-0.00012812,-0.16898801,0.30632758,0.14593512,-0.
 00201595,0.00109142,0.00070786,0.00049375,0.00054196,0.00047701,0.0012
 3943,-0.00018744,-0.00082810,0.24287225,-0.00648656,-0.00522005,0.0067
 7136,0.33341433,-0.72608470,-0.36068029,0.00186843,-0.00032801,-0.0010
 4887,0.00075872,-0.00027632,-0.00162531,-0.00041259,-0.00020236,0.0006
 3063,-0.44516038,1.05661315,0.00006547,-0.00705599,0.00601904,0.144225
 50,-0.33006069,-0.19207296,0.00095368,-0.00055305,0.00016448,0.0004692
 6,-0.00115133,-0.00193979,-0.00068055,0.00025008,0.00134627,-0.2050530
 8,0.47164886,0.26919653,0.00448035,0.00195270,0.00148822,0.00417672,-0
 .00582673,-0.00184809,-0.00070116,0.00086056,0.00053930,0.00026079,-0.
 00034117,-0.00045541,0.00017271,-0.00045442,-0.00019455,-0.08324850,0.
 13522093,0.06169782,0.07491157,0.00092970,0.00194322,-0.00067766,-0.00
 015882,0.00460821,0.00037834,-0.00010427,0.00022144,0.00008236,-0.0000
 3884,0.00014426,0.00002924,0.00012854,-0.00039389,-0.00017838,0.130304
 47,-0.29728898,-0.13343126,-0.13114119,0.29096001,0.00165810,-0.001926
 77,0.00401727,-0.00140711,0.00498020,0.00397014,-0.00037654,0.00021165
 ,0.00034772,0.00037131,-0.00083042,-0.00065190,-0.00015217,0.00049652,
 0.00024151,0.06117064,-0.13744233,-0.08565240,-0.06143356,0.13365883,0
 .07788147,-0.00959400,-0.00376032,0.00898662,-0.00183450,0.02431100,-0
 .00813758,0.00046651,-0.00042552,-0.00060989,0.00266771,-0.00261254,-0
 .00050784,0.00050647,0.00022579,0.00186117,0.00274021,-0.01999680,-0.0
 0198284,-0.00029766,-0.00013114,0.00054952,0.06351665,-0.00097593,-0.0
 0348495,0.00213350,-0.00222347,0.02080772,-0.00635793,0.00131771,-0.00
 063714,-0.00026582,-0.00078622,-0.00065350,-0.00062988,-0.00015443,0.0
 0110407,0.00044267,0.00104840,-0.02594381,-0.00153852,-0.00017819,0.00
 022473,0.00058650,0.06017999,0.06726362,0.00958697,0.00435772,-0.01017
 521,-0.00203151,-0.02325495,-0.00230506,0.00005715,0.00179536,0.000845
 43,-0.00048403,0.00102069,-0.00000785,0.00143782,-0.00066749,-0.000858
 38,-0.00167939,0.02059139,0.00128654,0.00033112,-0.00011802,0.00003855
 ,0.12129742,0.12068642,0.30261325,0.00015548,-0.00024176,0.00070627,0.
 00008471,-0.00092688,0.00497879,-0.00035310,-0.00009974,0.00005908,-0.
 00063201,0.00046650,0.00043914,-0.00051489,0.00022977,-0.00003410,0.00
 007455,0.00079393,0.00030475,0.00024518,0.00021154,-0.00038018,-0.0581
 7139,-0.05822786,-0.12851556,0.05911149,-0.00128218,0.00022297,0.00038
 163,0.00088562,-0.00018428,0.00469834,-0.00017729,0.00008104,0.0004075
 9,0.00046520,-0.00008378,-0.00031067,0.00003493,-0.00008181,0.00001145
 ,0.00016216,-0.00126891,0.00189190,-0.00009250,-0.00041900,0.00026583,
 -0.05779044,-0.05868074,-0.12441111,0.05779450,0.06041452,0.00060729,-
 0.00026361,-0.00137634,-0.00123450,-0.00358105,-0.00279042,-0.00004981
 ,0.00049281,0.00095459,0.00014695,-0.00028586,-0.00037335,0.00027161,0
 .00021852,0.00029166,-0.00060194,0.00115455,0.00165229,-0.00012486,0.0
 0025655,-0.00019236,-0.12145656,-0.11505694,-0.29143727,0.12244182,0.1
 1706504,0.29327121\\0.00000115,0.00000202,0.00000087,-0.00000129,-0.00
 000015,-0.00000101,0.00000066,-0.00000173,0.00000063,0.00000242,0.0000
 0125,0.00000148,0.00000013,0.00000141,-0.00000093,-0.00000580,-0.00000
 083,-0.00000237,-0.00000352,-0.00000056,-0.00000164,-0.00000808,-0.000
 00830,-0.00001822,0.00001434,0.00000690,0.00002118\\\@


 MICHAEL FARADAY, ASKED BY A POLITICIAN WHAT GOOD
 HIS ELECTRICAL DISCOVERIES WERE, REPLIED 
 "AT PRESENT I DO NOT KNOW, BUT ONE DAY YOU WILL BE
 ABLE TO TAX THEM."
 Job cpu time:       0 days  0 hours 21 minutes 23.6 seconds.
 File lengths (MBytes):  RWF=      9 Int=      0 D2E=      0 Chk=      1 Scr=      1
 Normal termination of Gaussian 09 at Wed Jan  6 16:29:36 2021.
