7
Properties=species:S:1:pos:R:3 energy=-3168.8081577092275 pbc="F F F"
C        0.92447900       0.05798500       0.01598600
C        0.43654700      -0.33188800       1.33957600
C        0.03460300      -0.65340100       2.43020600
H        0.57125200       1.06159000      -0.24950600
H        0.57116500      -0.64146300      -0.75111400
H        2.02076500       0.06518200      -0.00861600
H       -0.31908200      -0.93642500       3.39012900
