9
Properties=species:S:1:pos:R:3:momenta:R:3:forces:R:3 pbc="F F F"
C        0.74057884      -0.52934756      -0.85765413       1.36677674       1.09021379       0.95781532       0.06493435       0.09098638       0.15081008
C        0.25149427       0.60761032      -0.13528478       0.40701367       1.22227874       0.08003108      -0.23994887       0.15360792      -0.01165945
H        0.23504557      -1.45974039      -0.52800368      -0.30703946       0.15210468      -0.01528131      -0.05938347       0.04826641      -0.04614884
H        1.82382858      -0.67615907      -0.70596671      -0.22395178       0.13527353       0.27718918      -0.07576940      -0.02215585       0.00018392
H        0.56628134      -0.43116455      -1.94299908      -0.27864455      -0.58977316       0.21789691       0.01210367       0.01399256       0.09608493
C       -0.16479530       1.56024992       0.47657808       0.45576267       1.41921216       1.36238722       0.11257734      -0.44815913      -0.10861090
H       -0.50804765       2.38621976       0.98910539      -0.27492465       0.15059882       0.62870974      -0.07662078      -0.03539997       0.01027759
O       -1.29510859      -1.10779810       1.09700433      -1.62479010       0.27240460       0.99861659       0.21454382       0.15126130      -0.07359645
H       -1.64927705      -0.34987034       1.60722059       0.01909715      -0.17355805       0.02811912       0.04756333       0.04760039      -0.01734089
