3
Properties=species:S:1:pos:R:3 energy=-4106.264279262146 pbc="F F F"
O        0.90066300      -0.08775100       0.06508400
O        0.53363600      -0.98110600       0.82480800
H        1.95301500      -0.07944900       0.05802400
