 Entering Gaussian System, Link 0=g09
 Initial command:
 /apps/applications/gaussian/G09.D01/2/default/g09/l1.exe "/nobackup/chmrsh/Scratch/Gau-131690.inp" -scrdir="/nobackup/chmrsh/Scratch/"
 Entering Link 1 = /apps/applications/gaussian/G09.D01/2/default/g09/l1.exe PID=    131691.
  
 Copyright (c) 1988,1990,1992,1993,1995,1998,2003,2009,2013,
            Gaussian, Inc.  All Rights Reserved.
  
 This is part of the Gaussian(R) 09 program.  It is based on
 the Gaussian(R) 03 system (copyright 2003, Gaussian, Inc.),
 the Gaussian(R) 98 system (copyright 1998, Gaussian, Inc.),
 the Gaussian(R) 94 system (copyright 1995, Gaussian, Inc.),
 the Gaussian 92(TM) system (copyright 1992, Gaussian, Inc.),
 the Gaussian 90(TM) system (copyright 1990, Gaussian, Inc.),
 the Gaussian 88(TM) system (copyright 1988, Gaussian, Inc.),
 the Gaussian 86(TM) system (copyright 1986, Carnegie Mellon
 University), and the Gaussian 82(TM) system (copyright 1983,
 Carnegie Mellon University). Gaussian is a federally registered
 trademark of Gaussian, Inc.
  
 This software contains proprietary and confidential information,
 including trade secrets, belonging to Gaussian, Inc.
  
 This software is provided under written license and may be
 used, copied, transmitted, or stored only in accord with that
 written license.
  
 The following legend is applicable only to US Government
 contracts under FAR:
  
                    RESTRICTED RIGHTS LEGEND
  
 Use, reproduction and disclosure by the US Government is
 subject to restrictions as set forth in subparagraphs (a)
 and (c) of the Commercial Computer Software - Restricted
 Rights clause in FAR 52.227-19.
  
 Gaussian, Inc.
 340 Quinnipiac St., Bldg. 40, Wallingford CT 06492
  
  
 ---------------------------------------------------------------
 Warning -- This program may not be used in any manner that
 competes with the business of Gaussian, Inc. or will provide
 assistance to any competitor of Gaussian, Inc.  The licensee
 of this program is prohibited from giving any competitor of
 Gaussian, Inc. access to this program.  By using this program,
 the user acknowledges that Gaussian, Inc. is engaged in the
 business of creating and licensing software in the field of
 computational chemistry and represents and warrants to the
 licensee that it is not a competitor of Gaussian, Inc. and that
 it will not use this program in any manner prohibited above.
 ---------------------------------------------------------------
  

 Cite this work as:
 Gaussian 09, Revision D.01,
 M. J. Frisch, G. W. Trucks, H. B. Schlegel, G. E. Scuseria, 
 M. A. Robb, J. R. Cheeseman, G. Scalmani, V. Barone, B. Mennucci, 
 G. A. Petersson, H. Nakatsuji, M. Caricato, X. Li, H. P. Hratchian, 
 A. F. Izmaylov, J. Bloino, G. Zheng, J. L. Sonnenberg, M. Hada, 
 M. Ehara, K. Toyota, R. Fukuda, J. Hasegawa, M. Ishida, T. Nakajima, 
 Y. Honda, O. Kitao, H. Nakai, T. Vreven, J. A. Montgomery, Jr., 
 J. E. Peralta, F. Ogliaro, M. Bearpark, J. J. Heyd, E. Brothers, 
 K. N. Kudin, V. N. Staroverov, T. Keith, R. Kobayashi, J. Normand, 
 K. Raghavachari, A. Rendell, J. C. Burant, S. S. Iyengar, J. Tomasi, 
 M. Cossi, N. Rega, J. M. Millam, M. Klene, J. E. Knox, J. B. Cross, 
 V. Bakken, C. Adamo, J. Jaramillo, R. Gomperts, R. E. Stratmann, 
 O. Yazyev, A. J. Austin, R. Cammi, C. Pomelli, J. W. Ochterski, 
 R. L. Martin, K. Morokuma, V. G. Zakrzewski, G. A. Voth, 
 P. Salvador, J. J. Dannenberg, S. Dapprich, A. D. Daniels, 
 O. Farkas, J. B. Foresman, J. V. Ortiz, J. Cioslowski, 
 and D. J. Fox, Gaussian, Inc., Wallingford CT, 2013.
 
 ******************************************
 Gaussian 09:  ES64L-G09RevD.01 24-Apr-2013
                 4-Feb-2021 
 ******************************************
 %nprocshared=1
 Will use up to    1 processors via shared memory.
 ----------------------------------------------------------------------
 #P upm6 scf=qc opt(calcall, ts, noeigentest, cartesian,maxcycle=100) N
 oSymm, guess=mix
 ----------------------------------------------------------------------
 1/5=1,6=100,10=4,11=1,14=-1,18=10,26=1,38=1/1,3;
 2/12=2,15=1,17=6,18=5,29=2,40=1/2;
 3/5=2,16=1,25=1,41=3900000,71=2,116=2,140=1/1,2,3;
 4/13=-1,35=1/1;
 5/5=2,8=3,35=1,38=5/8;
 8/6=4,10=90,11=11/1;
 11/6=1,8=1,9=11,15=111,16=1,31=1/1,2,10;
 10/6=1,31=1/2;
 6/7=2,8=2,9=2,10=2,18=1,28=1/1;
 7/7=1,10=1,25=1,30=1/1,2,3,16;
 1/5=1,6=100,10=4,11=1,14=-1,18=10,26=1/3(3);
 2/15=1,29=1/2;
 7/7=1,8=1,9=1,25=1,30=1,44=-1/16;
 99/12=1/99;
 2/15=1,29=1/2;
 3/5=2,16=1,25=1,41=3900000,71=2,116=2,135=20,140=1/1,2,3;
 4/5=5,16=3,35=1/1;
 5/5=2,8=3,35=1,38=5/8;
 8/6=4,10=90,11=11/1;
 11/6=1,8=1,9=11,15=111,16=1,31=1/1,2,10;
 10/6=1,31=1/2;
 7/7=1,10=1,25=1,30=1/1,2,3,16;
 1/5=1,6=100,10=4,11=1,14=-1,18=10,26=1/3(-8);
 2/15=1,29=1/2;
 6/7=2,8=2,9=2,10=2,18=1,19=2,28=1/1;
 7/7=1,8=1,9=1,25=1,30=1,44=-1/16;
 99/12=1/99;
 Leave Link    1 at Thu Feb  4 18:07:36 2021, MaxMem=           0 cpu:         0.0
 (Enter /apps/applications/gaussian/G09.D01/2/default/g09/l101.exe)
 ------------------------------
 Gaussian input prepared by ASE
 ------------------------------
 Symbolic Z-matrix:
 Charge =  0 Multiplicity = 2
 O                    -1.70103  -0.13876   1.77835 
 C                    -2.42063   0.75464   1.69028 
 C                    -3.19987   1.83467   1.51524 
 C                    -4.62104   1.69449   0.98137 
 C                    -5.67804   2.23175   1.95733 
 C                    -6.36672   3.49251   1.42212 
 H                    -7.30801   3.71412   1.97695 
 C                    -5.44728   4.735     1.49144 
 O                    -4.77164   4.8934    2.48159 
 C                    -5.52627   5.66844   0.34023 
 H                    -7.75552   1.83625  -0.46084 
 H                    -3.08904   2.71156   2.20655 
 H                    -2.59745   2.69959   0.68198 
 H                    -4.6679    2.27843   0.02045 
 H                    -4.85283   0.65356   0.69383 
 H                    -6.44276   1.45731   2.15243 
 H                    -5.24075   2.4623    2.95084 
 H                    -4.74861   6.44543   0.38089 
 H                    -5.3891    5.13939  -0.62246 
 H                    -6.50661   6.16033   0.27996 
 O                    -6.71483   3.31642   0.02327 
 O                    -7.9899    2.68273   0.02349 
 O                    -2.97599   3.18992  -1.19909 
 O                    -2.57752   3.71718  -0.1159 
 
 NAtoms=     24 NQM=       24 NQMF=       0 NMMI=      0 NMMIF=      0
                NMic=       0 NMicF=      0.
                    Isotopes and Nuclear Properties:
 (Nuclear quadrupole moments (NQMom) in fm**2, nuclear magnetic moments (NMagM)
  in nuclear magnetons)

  Atom         1           2           3           4           5           6           7           8           9          10
 IAtWgt=          16          12          12          12          12          12           1          12          16          12
 AtmWgt=  15.9949146  12.0000000  12.0000000  12.0000000  12.0000000  12.0000000   1.0078250  12.0000000  15.9949146  12.0000000
 NucSpn=           0           0           0           0           0           0           1           0           0           0
 AtZEff=   0.0000000   0.0000000   0.0000000   0.0000000   0.0000000   0.0000000   0.0000000   0.0000000   0.0000000   0.0000000
 NQMom=    0.0000000   0.0000000   0.0000000   0.0000000   0.0000000   0.0000000   0.0000000   0.0000000   0.0000000   0.0000000
 NMagM=    0.0000000   0.0000000   0.0000000   0.0000000   0.0000000   0.0000000   2.7928460   0.0000000   0.0000000   0.0000000
 AtZNuc=   8.0000000   6.0000000   6.0000000   6.0000000   6.0000000   6.0000000   1.0000000   6.0000000   8.0000000   6.0000000

  Atom        11          12          13          14          15          16          17          18          19          20
 IAtWgt=           1           1           1           1           1           1           1           1           1           1
 AtmWgt=   1.0078250   1.0078250   1.0078250   1.0078250   1.0078250   1.0078250   1.0078250   1.0078250   1.0078250   1.0078250
 NucSpn=           1           1           1           1           1           1           1           1           1           1
 AtZEff=   0.0000000   0.0000000   0.0000000   0.0000000   0.0000000   0.0000000   0.0000000   0.0000000   0.0000000   0.0000000
 NQMom=    0.0000000   0.0000000   0.0000000   0.0000000   0.0000000   0.0000000   0.0000000   0.0000000   0.0000000   0.0000000
 NMagM=    2.7928460   2.7928460   2.7928460   2.7928460   2.7928460   2.7928460   2.7928460   2.7928460   2.7928460   2.7928460
 AtZNuc=   1.0000000   1.0000000   1.0000000   1.0000000   1.0000000   1.0000000   1.0000000   1.0000000   1.0000000   1.0000000

  Atom        21          22          23          24
 IAtWgt=          16          16          16          16
 AtmWgt=  15.9949146  15.9949146  15.9949146  15.9949146
 NucSpn=           0           0           0           0
 AtZEff=   0.0000000   0.0000000   0.0000000   0.0000000
 NQMom=    0.0000000   0.0000000   0.0000000   0.0000000
 NMagM=    0.0000000   0.0000000   0.0000000   0.0000000
 AtZNuc=   8.0000000   8.0000000   8.0000000   8.0000000
 Leave Link  101 at Thu Feb  4 18:07:36 2021, MaxMem=    33554432 cpu:         0.1
 (Enter /apps/applications/gaussian/G09.D01/2/default/g09/l103.exe)

 GradGradGradGradGradGradGradGradGradGradGradGradGradGradGradGradGradGrad
 Berny optimization.
 Initialization pass.
 No Z-matrix variables, so optimization will use Cartesian coordinates.
 Trust Radius=3.00D-01 FncErr=1.00D-07 GrdErr=1.00D-07
 Number of steps in this run=    100 maximum allowed number of steps=    144.
 Search for a saddle point of order  1.
 GradGradGradGradGradGradGradGradGradGradGradGradGradGradGradGradGradGrad

 Leave Link  103 at Thu Feb  4 18:07:36 2021, MaxMem=    33554432 cpu:         0.0
 (Enter /apps/applications/gaussian/G09.D01/2/default/g09/l202.exe)
 ---------------------------------------------------------------------------------------------------
                            Z-MATRIX (ANGSTROMS AND DEGREES)
   CD    Cent   Atom    N1       Length/X        N2       Alpha/Y        N3        Beta/Z          J
 ---------------------------------------------------------------------------------------------------
      1      1  O        0  -1.701025         -0.138764          1.778346
      2      2  C        0  -2.420630          0.754635          1.690281
      3      3  C        0  -3.199871          1.834675          1.515240
      4      4  C        0  -4.621041          1.694485          0.981366
      5      5  C        0  -5.678036          2.231754          1.957332
      6      6  C        0  -6.366724          3.492515          1.422120
      7      7  H        0  -7.308011          3.714115          1.976952
      8      8  C        0  -5.447281          4.735001          1.491441
      9      9  O        0  -4.771641          4.893398          2.481594
     10     10  C        0  -5.526274          5.668437          0.340229
     11     11  H        0  -7.755521          1.836245         -0.460837
     12     12  H        0  -3.089035          2.711557          2.206553
     13     13  H        0  -2.597451          2.699588          0.681979
     14     14  H        0  -4.667898          2.278433          0.020452
     15     15  H        0  -4.852826          0.653563          0.693834
     16     16  H        0  -6.442755          1.457312          2.152430
     17     17  H        0  -5.240751          2.462302          2.950840
     18     18  H        0  -4.748607          6.445432          0.380888
     19     19  H        0  -5.389097          5.139391         -0.622459
     20     20  H        0  -6.506608          6.160330          0.279959
     21     21  O        0  -6.714828          3.316423          0.023269
     22     22  O        0  -7.989900          2.682726          0.023492
     23     23  O        0  -2.975988          3.189916         -1.199089
     24     24  O        0  -2.577521          3.717183         -0.115900
 ---------------------------------------------------------------------------------------------------
                         Z-Matrix orientation:                         
 ---------------------------------------------------------------------
 Center     Atomic      Atomic             Coordinates (Angstroms)
 Number     Number       Type             X           Y           Z
 ---------------------------------------------------------------------
      1          8           0       -1.701025   -0.138764    1.778346
      2          6           0       -2.420630    0.754635    1.690281
      3          6           0       -3.199871    1.834675    1.515240
      4          6           0       -4.621041    1.694485    0.981366
      5          6           0       -5.678036    2.231754    1.957332
      6          6           0       -6.366724    3.492515    1.422120
      7          1           0       -7.308011    3.714115    1.976952
      8          6           0       -5.447281    4.735001    1.491441
      9          8           0       -4.771641    4.893398    2.481594
     10          6           0       -5.526274    5.668437    0.340229
     11          1           0       -7.755521    1.836245   -0.460837
     12          1           0       -3.089035    2.711557    2.206553
     13          1           0       -2.597451    2.699588    0.681979
     14          1           0       -4.667898    2.278433    0.020452
     15          1           0       -4.852826    0.653563    0.693834
     16          1           0       -6.442755    1.457312    2.152430
     17          1           0       -5.240751    2.462302    2.950840
     18          1           0       -4.748607    6.445432    0.380888
     19          1           0       -5.389097    5.139391   -0.622459
     20          1           0       -6.506608    6.160330    0.279959
     21          8           0       -6.714828    3.316423    0.023269
     22          8           0       -7.989900    2.682726    0.023492
     23          8           0       -2.975988    3.189916   -1.199089
     24          8           0       -2.577521    3.717183   -0.115900
 ---------------------------------------------------------------------
                    Distance matrix (angstroms):
                    1          2          3          4          5
     1  O    0.000000
     2  C    1.150543   0.000000
     3  C    2.492032   1.343258   0.000000
     4  C    3.538710   2.495533   1.524597   0.000000
     5  C    4.633358   3.586627   2.548415   1.535710   0.000000
     6  C    5.922992   4.810360   3.575761   2.544521   1.533056
     7  H    6.806056   5.720768   4.541176   3.505696   2.203315
     8  C    6.153888   5.004345   3.669238   3.191800   2.556667
     9  O    5.936825   4.825224   3.572126   3.536440   2.860202
    10  C    7.101006   5.967672   4.635788   4.125869   3.801163
    11  H    6.750668   5.853055   4.965765   3.453261   3.212461
    12  H    3.199103   2.131395   1.122105   2.209651   2.644853
    13  H    3.172040   2.197903   1.343618   2.279206   3.366808
    14  H    4.211338   3.187555   2.141592   1.125410   2.184962
    15  H    3.426046   2.630342   2.191344   1.104499   2.183595
    16  H    5.017111   4.109115   3.326366   2.178597   1.105721
    17  H    4.546420   3.529619   2.572946   2.202818   1.109698
    18  H    7.388658   6.286426   4.994438   4.790443   4.593919
    19  H    6.872020   5.778118   4.503733   3.876795   3.897840
    20  H    8.063335   6.921399   5.583164   4.898072   4.351301
    21  O    6.336942   5.270847   4.095910   2.816484   2.447865
    22  O    7.112683   6.124744   5.088111   3.639142   3.047593
    23  O    4.644433   3.819355   3.042102   3.113984   4.264051
    24  O    4.384602   3.473268   2.567445   3.077543   4.014721
                    6          7          8          9         10
     6  C    0.000000
     7  H    1.114883   0.000000
     8  C    1.547240   2.177210   0.000000
     9  O    2.372604   2.842278   1.209125   0.000000
    10  C    2.571280   3.110115   1.484194   2.399083   0.000000
    11  H    2.866620   3.109578   4.188334   5.187256   4.505212
    12  H    3.459549   4.342533   3.188579   2.768978   4.262210
    13  H    3.922239   4.989548   3.594394   3.574705   4.184359
    14  H    2.514891   3.585982   2.967486   3.592495   3.511579
    15  H    3.298778   4.128111   4.200915   4.602051   5.072231
    16  H    2.163605   2.423349   3.488714   3.835057   4.675209
    17  H    2.160125   2.605582   2.708812   2.520017   4.144407
    18  H    3.524512   4.069159   2.155701   2.611955   1.100064
    19  H    2.801474   3.531370   2.153019   3.174415   1.107012
    20  H    2.905397   3.083180   2.149750   3.076106   1.098475
    21  O    1.452228   2.080120   2.403033   3.508018   2.654259
    22  O    2.290549   2.311870   3.582124   4.613732   3.883843
    23  O    4.296439   5.397077   3.966551   4.435499   3.875116
    24  O    4.095612   5.172772   3.443112   3.597863   3.565191
                   11         12         13         14         15
    11  H    0.000000
    12  H    5.445845   0.000000
    13  H    5.353230   1.601913   0.000000
    14  H    3.156039   2.731198   2.213987   0.000000
    15  H    3.340306   3.103967   3.045172   1.768571   0.000000
    16  H    2.948917   3.580991   4.300214   2.893042   2.302475
    17  H    4.284338   2.290408   3.491570   2.991511   2.918235
    18  H    5.567282   4.475383   4.330066   4.183336   5.801253
    19  H    4.066552   4.380408   3.930329   3.019692   4.705620
    20  H    4.561389   5.223563   5.236398   4.303175   5.764613
    21  O    1.873052   4.275391   4.215113   2.295072   3.317760
    22  O    1.003014   5.365171   5.432530   3.346514   3.795799
    23  O    5.022088   3.440931   1.980437   2.276102   3.679505
    24  O    5.519836   2.581999   1.293255   2.541313   3.901083
                   16         17         18         19         20
    16  H    0.000000
    17  H    1.758488   0.000000
    18  H    5.557863   4.765730   0.000000
    19  H    4.729472   4.467357   1.767110   0.000000
    20  H    5.062470   4.734069   1.783827   1.762244   0.000000
    21  O    2.839656   3.387196   3.712763   2.344725   2.863049
    22  O    2.903046   4.021912   4.979123   3.635468   3.789414
    23  O    5.123775   4.783354   4.029502   3.155321   4.845226
    24  O    5.019201   4.251166   3.521896   3.191275   4.643640
                   21         22         23         24
    21  O    0.000000
    22  O    1.423860   0.000000
    23  O    3.935618   5.185677   0.000000
    24  O    4.159001   5.512111   1.268892   0.000000
 Symmetry turned off by external request.
 Stoichiometry    C7H11O6(2)
 Framework group  C1[X(C7H11O6)]
 Deg. of freedom    66
 Full point group                 C1      NOp   1
 Rotational constants (GHZ):      0.9503428      0.4786307      0.4251214
 Leave Link  202 at Thu Feb  4 18:07:36 2021, MaxMem=    33554432 cpu:         0.0
 (Enter /apps/applications/gaussian/G09.D01/2/default/g09/l301.exe)
 Standard basis: VSTO-6G (5D, 7F)
 Ernie: Thresh=  0.10000D-02 Tol=  0.10000D-05 Strict=F.
  NNHCO=     0 NNPyr=     0 NCTC=     0               EPep=         0.000000000
    EC=       411.359419885  ECS=         4.912717058   EG=         0.357970184
   EHC=         0.002054674  EAt=       -97.491951148  AtH=         3.389121767
 EPDDG=         0.000000000  ECC=       416.632161801 EAtT=       100.881072916
    63 basis functions,   378 primitive gaussians,    63 cartesian basis functions
    38 alpha electrons       37 beta electrons
       nuclear repulsion energy       517.5132347170 Hartrees.
 IExCor=    0 DFT=F Ex=HF Corr=None ExCW=0 ScaHFX=  1.000000
 ScaDFX=  1.000000  1.000000  1.000000  1.000000 ScalE2=  1.000000  1.000000
 IRadAn=      0 IRanWt=     -1 IRanGd=            0 ICorTp=0 IEmpDi=  4
 Integral buffers will be    131072 words long.
 Regular integral format.
 Two-electron integral symmetry is turned off.
 Leave Link  301 at Thu Feb  4 18:07:36 2021, MaxMem=    33554432 cpu:         0.0
 (Enter /apps/applications/gaussian/G09.D01/2/default/g09/l302.exe)
 Do NDO integrals.
 NPDir=0 NMtPBC=     1 NCelOv=     1 NCel=       1 NClECP=     1 NCelD=      1
         NCelK=      1 NCelE2=     1 NClLst=     1 CellRange=     0.0.
 One-electron integrals computed using PRISM.
 NBasis=    63 RedAO= F EigKep=  0.00D+00  NBF=    63
 NBsUse=    63 1.00D-04 EigRej=  0.00D+00 NBFU=    63
 Leave Link  302 at Thu Feb  4 18:07:36 2021, MaxMem=    33554432 cpu:         0.1
 (Enter /apps/applications/gaussian/G09.D01/2/default/g09/l303.exe)
 DipDrv:  MaxL=1.
 Leave Link  303 at Thu Feb  4 18:07:36 2021, MaxMem=    33554432 cpu:         0.0
 (Enter /apps/applications/gaussian/G09.D01/2/default/g09/l401.exe)
 Simple Huckel Guess.
 JPrj=0 DoOrth=F DoCkMO=T.
 Mixing orbitals, IMix= 1 IMixAn=  0 NRI=1 NE=   38 Coef=  7.07106781D-01  7.07106781D-01
 Mixing orbitals, IMix= 1 IMixAn=  0 NRI=1 NE=   37 Coef= -7.07106781D-01  7.07106781D-01
 Initial guess <Sx>= 0.0000 <Sy>= 0.0000 <Sz>= 0.5000 <S**2>= 1.0000 S= 0.6180
 Leave Link  401 at Thu Feb  4 18:07:36 2021, MaxMem=    33554432 cpu:         0.0
 (Enter /apps/applications/gaussian/G09.D01/2/default/g09/l508.exe)
 Direct SCF.
 Tight linear equation convergence will be used.
 UPM6 wavefunction.
 Quadratic Convergence SCF Method.
 Line search only if initial step raises energy.
 Two-electron integral symmetry not used.
 ReadGW:  IGet=1 IStart=       59293 Next=       59293 LGW=           0.
 Keep J ints in memory in canonical form, NReq=922402.
 FoFCou: FMM=F IPFlag=           0 FMFlag=           0 FMFlg1=           0
         NFxFlg=           0 DoJE=F BraDBF=F KetDBF=F FulRan=T
         wScrn=  0.000000 ICntrl=     600 IOpCl=  2 I1Cent=           0 NGrid=           0
         NMat0=    1 NMatS0=    141 NMatT0=    0 NMatD0=    1 NMtDS0=    0 NMtDT0=    0
 Symmetry not used in FoFCou.
 Iteration   1 EE= 0.907816400832644                                    Grad=6.519D-01 Max rot=    5.6396 deg.
 Gradient too large for Newton-Raphson -- use scaled steepest descent instead.
 Alpha Gap=     0.133 HL deriv= 7.39D-01
  Beta Gap=     0.211 HL deriv= 2.82D-01
     ILin= 1 X=0.000D+00 Y= 9.078164008326D-01 DE= 0.00D+00 F= -1.27D+00
     ILin= 2 X=3.000D-01 Y= 5.595876581465D-01 DE=-3.48D-01 F= -1.04D+00
     ILin= 3 X=4.000D-01 Y= 4.597496542159D-01 DE=-4.48D-01 F= -9.53D-01
     ILin= 4 X=6.000D-01 Y= 2.883267697217D-01 DE=-6.19D-01 F= -7.58D-01
     ILin= 5 X=8.000D-01 Y= 1.577724879266D-01 DE=-7.50D-01 F= -5.46D-01
     ILin= 6 X=1.200D+00 Y= 2.808060117616D-02 DE=-8.80D-01 F= -1.01D-01
     ILin= 7 X=1.700D+00 Y= 1.125032335004D-01 DE=-7.95D-01 F=  4.28D-01
     An  expanding polynomial of degree  7 produced  1.2917
     Minimum is close to point  6 DX=  9.17D-02 DF= -4.64D-03 DXR=  7.10D-02 DFR=  5.27D-03 which will be used.
 Iteration   2 EE= 0.280806011761570E-01 Delta-E=       -0.879735799656 Grad=2.172D-01 Max rot=    3.1283 deg.
 Gradient too large for Newton-Raphson -- use scaled steepest descent instead.
 Alpha Gap=     0.278 HL deriv= 1.08D-01
  Beta Gap=     0.317 HL deriv= 4.51D-02
     ILin= 1 X=0.000D+00 Y= 2.808060117616D-02 DE= 0.00D+00 F= -1.37D-01
     ILin= 2 X=6.000D-01 Y=-3.820420300212D-02 DE=-6.63D-02 F= -8.32D-02
     ILin= 3 X=9.000D-01 Y=-5.889409075735D-02 DE=-8.70D-02 F= -5.45D-02
     ILin= 4 X=1.400D+00 Y=-7.372625572543D-02 DE=-1.02D-01 F= -4.37D-03
     ILin= 5 X=2.000D+00 Y=-5.755648926743D-02 DE=-8.56D-02 F=  5.87D-02
     An  expanding polynomial of degree  5 produced  1.4425
     Minimum is close to point  4 DX=  4.25D-02 DF= -9.30D-05 DXR=  2.95D-02 DFR=  9.13D-04 which will be used.
 Iteration   3 EE=-0.737262557254326E-01 Delta-E=       -0.101806856902 Grad=6.969D-02 Max rot=    1.1089 deg.
 Gradient too large for Newton-Raphson -- use scaled steepest descent instead.
 Alpha Gap=     0.329 HL deriv= 2.65D-02
  Beta Gap=     0.323 HL deriv= 4.37D-02
     ILin= 1 X=0.000D+00 Y=-7.372625572543D-02 DE= 0.00D+00 F= -1.47D-02
     ILin= 2 X=1.400D+00 Y=-8.364166843705D-02 DE=-9.92D-03 F=  6.12D-04
     Accept linear search using points  1 and  2.
     An  expanding polynomial of degree  2 produced  1.3760
     Minimum is close to point  2 DX= -2.40D-02 DF= -5.23D-06 DXR=  1.74D-02 DFR=  5.27D-04 which will be used.
 Iteration   4 EE=-0.836416684370533E-01 Delta-E=       -0.009915412712 Grad=3.556D-02 Max rot=    0.5972 deg.
 Gradient too large for Newton-Raphson -- use scaled steepest descent instead.
 Alpha Gap=     0.334 HL deriv= 8.83D-04
  Beta Gap=     0.325 HL deriv= 3.21D-02
     ILin= 1 X=0.000D+00 Y=-8.364166843705D-02 DE= 0.00D+00 F= -4.12D-03
     ILin= 2 X=1.400D+00 Y=-8.654979733467D-02 DE=-2.91D-03 F= -2.70D-05
     Reject lnstep minimum 1.404D+00 FVal=-8.654983270766D-02 Lims=  0.00D+00  1.40D+00
     ILin= 3 X=2.700D+00 Y=-8.410290838083D-02 DE=-4.61D-04 F=  3.79D-03
     An  expanding polynomial of degree  3 produced  1.4082
     Minimum is close to point  2 DX=  8.25D-03 DF= -9.97D-08 DXR=  5.86D-03 DFR=  3.43D-05 which will be used.
 Iteration   5 EE=-0.865497973346692E-01 Delta-E=       -0.002908128898 Grad=2.271D-02 Max rot=    0.5496 deg.
 Gradient too large for Newton-Raphson -- use scaled steepest descent instead.
 Alpha Gap=     0.337 HL deriv= 5.98D-03
  Beta Gap=     0.328 HL deriv= 2.93D-02
     ILin= 1 X=0.000D+00 Y=-8.654979733467D-02 DE= 0.00D+00 F= -1.88D-03
     ILin= 2 X=1.400D+00 Y=-8.815722765792D-02 DE=-1.61D-03 F= -4.12D-04
     ILin= 3 X=2.700D+00 Y=-8.779633646020D-02 DE=-1.25D-03 F=  9.69D-04
     An  expanding polynomial of degree  3 produced  1.7871
 Iteration   6 EE=-0.882373713679954E-01 Delta-E=       -0.001687574033 Grad=2.205D-02 Max rot=    0.4682 deg.
 Gradient too large for Newton-Raphson -- use scaled steepest descent instead.
 Alpha Gap=     0.337 HL deriv= 1.64D-03
  Beta Gap=     0.328 HL deriv= 2.49D-02
     ILin= 1 X=0.000D+00 Y=-8.823737136800D-02 DE= 0.00D+00 F= -1.68D-03
     ILin= 2 X=1.600D+00 Y=-8.948314183226D-02 DE=-1.25D-03 F=  1.19D-04
     Accept linear search using points  1 and  2.
     An  expanding polynomial of degree  2 produced  1.5654
     Minimum is close to point  2 DX= -3.46D-02 DF= -1.27D-06 DXR=  2.21D-02 DFR=  1.02D-03 which will be used.
 Iteration   7 EE=-0.894831418322610E-01 Delta-E=       -0.001245770464 Grad=1.933D-02 Max rot=    0.4323 deg.
 Gradient too large for Newton-Raphson -- use scaled steepest descent instead.
 Alpha Gap=     0.339 HL deriv= 3.21D-03
  Beta Gap=     0.330 HL deriv= 2.29D-02
     ILin= 1 X=0.000D+00 Y=-8.948314183226D-02 DE= 0.00D+00 F= -1.30D-03
     ILin= 2 X=1.700D+00 Y=-9.049200815070D-02 DE=-1.01D-03 F=  1.17D-04
     ILin= 3 X=3.300D+00 Y=-8.922647579288D-02 DE= 2.57D-04 F=  1.47D-03
     An  expanding polynomial of degree  3 produced  1.5573
     Minimum is close to point  2 DX= -1.43D-01 DF= -8.54D-06 DXR=  9.16D-02 DFR=  8.47D-03 which will be used.
 Iteration   8 EE=-0.904920081507044E-01 Delta-E=       -0.001008866318 Grad=1.851D-02 Max rot=    0.3859 deg.
 Gradient too large for Newton-Raphson -- use scaled steepest descent instead.
 Alpha Gap=     0.338 HL deriv= 1.58D-03
  Beta Gap=     0.329 HL deriv= 2.05D-02
     ILin= 1 X=0.000D+00 Y=-9.049200815070D-02 DE= 0.00D+00 F= -1.17D-03
     ILin= 2 X=1.600D+00 Y=-9.133375252895D-02 DE=-8.42D-04 F=  1.19D-04
     Accept linear search using points  1 and  2.
     An  expanding polynomial of degree  2 produced  1.5481
     Minimum is close to point  2 DX= -5.19D-02 DF= -1.91D-06 DXR=  3.35D-02 DFR=  2.27D-03 which will be used.
 Iteration   9 EE=-0.913337525289535E-01 Delta-E=       -0.000841744378 Grad=1.640D-02 Max rot=    0.3483 deg.
 Gradient too large for Newton-Raphson -- use scaled steepest descent instead.
 Alpha Gap=     0.339 HL deriv= 2.24D-03
  Beta Gap=     0.330 HL deriv= 1.84D-02
     ILin= 1 X=0.000D+00 Y=-9.133375252895D-02 DE= 0.00D+00 F= -9.25D-04
     ILin= 2 X=1.600D+00 Y=-9.202358368293D-02 DE=-6.90D-04 F=  6.37D-05
     Accept linear search using points  1 and  2.
     An  expanding polynomial of degree  2 produced  1.5666
     Minimum is close to point  2 DX= -3.34D-02 DF= -6.60D-07 DXR=  2.13D-02 DFR=  9.57D-04 which will be used.
 Iteration  10 EE=-0.920235836829306E-01 Delta-E=       -0.000689831154 Grad=1.445D-02 Max rot=    0.3145 deg.
 Gradient too large for Newton-Raphson -- use scaled steepest descent instead.
 Alpha Gap=     0.339 HL deriv= 1.16D-03
  Beta Gap=     0.330 HL deriv= 1.66D-02
     ILin= 1 X=0.000D+00 Y=-9.202358368293D-02 DE= 0.00D+00 F= -7.32D-04
     ILin= 2 X=1.600D+00 Y=-9.258338462723D-02 DE=-5.60D-04 F=  3.22D-05
     Accept linear search using points  1 and  2.
     An  expanding polynomial of degree  2 produced  1.5796
     Minimum is close to point  2 DX= -2.04D-02 DF= -2.04D-07 DXR=  1.29D-02 DFR=  3.65D-04 which will be used.
 Iteration  11 EE=-0.925833846272326E-01 Delta-E=       -0.000559800944 Grad=1.287D-02 Max rot=    0.2771 deg.
 Gradient too large for Newton-Raphson -- use scaled steepest descent instead.
 Alpha Gap=     0.340 HL deriv= 1.57D-03
  Beta Gap=     0.331 HL deriv= 1.46D-02
     ILin= 1 X=0.000D+00 Y=-9.258338462723D-02 DE= 0.00D+00 F= -5.80D-04
     ILin= 2 X=1.600D+00 Y=-9.303516679506D-02 DE=-4.52D-04 F=  1.55D-05
     Accept linear search using points  1 and  2.
     An  expanding polynomial of degree  2 produced  1.5882
     Minimum is close to point  2 DX= -1.18D-02 DF= -5.73D-08 DXR=  7.46D-03 DFR=  1.27D-04 which will be used.
 Iteration  12 EE=-0.930351667950617E-01 Delta-E=       -0.000451782168 Grad=1.137D-02 Max rot=    0.2501 deg.
 Gradient too large for Newton-Raphson -- use scaled steepest descent instead.
 Alpha Gap=     0.340 HL deriv= 8.35D-04
  Beta Gap=     0.330 HL deriv= 1.32D-02
     ILin= 1 X=0.000D+00 Y=-9.303516679506D-02 DE= 0.00D+00 F= -4.60D-04
     ILin= 2 X=1.600D+00 Y=-9.339661828619D-02 DE=-3.61D-04 F=  7.68D-06
     ILin= 3 X=3.200D+00 Y=-9.301070520871D-02 DE= 2.45D-05 F=  4.75D-04
     An  expanding polynomial of degree  3 produced  1.5738
     Minimum is close to point  2 DX= -2.62D-02 DF= -1.00D-07 DXR=  1.66D-02 DFR=  2.77D-04 which will be used.
 Iteration  13 EE=-0.933966182861923E-01 Delta-E=       -0.000361451491 Grad=1.017D-02 Max rot=    0.2163 deg.
 Gradient too large for Newton-Raphson -- use scaled steepest descent instead.
 Alpha Gap=     0.341 HL deriv= 1.15D-03
  Beta Gap=     0.331 HL deriv= 1.14D-02
     ILin= 1 X=0.000D+00 Y=-9.339661828619D-02 DE= 0.00D+00 F= -3.64D-04
     ILin= 2 X=1.600D+00 Y=-9.368448422310D-02 DE=-2.88D-04 F=  4.84D-06
     ILin= 3 X=3.200D+00 Y=-9.338019890140D-02 DE= 1.64D-05 F=  3.76D-04
     An  expanding polynomial of degree  3 produced  1.5778
     Minimum is close to point  2 DX= -2.22D-02 DF= -5.69D-08 DXR=  1.41D-02 DFR=  1.98D-04 which will be used.
 Iteration  14 EE=-0.936844842231039E-01 Delta-E=       -0.000287865937 Grad=9.017D-03 Max rot=    0.1951 deg.
 QCNR:  CnvC1=4.37D-09 CnvC2=4.37D-08
 LinEq1:  Iter=  0 NonCon=     1 RMS=4.19D-04 Max=1.41D-02 NDo=     1
 AX will form     1 AO Fock derivatives at one time.
 LinEq1:  Iter=  1 NonCon=     1 RMS=1.61D-04 Max=2.98D-03 NDo=     1
 LinEq1:  Iter=  2 NonCon=     1 RMS=2.16D-05 Max=2.95D-04 NDo=     1
 LinEq1:  Iter=  3 NonCon=     1 RMS=5.53D-06 Max=9.53D-05 NDo=     1
 LinEq1:  Iter=  4 NonCon=     1 RMS=1.28D-06 Max=2.17D-05 NDo=     1
 LinEq1:  Iter=  5 NonCon=     1 RMS=2.30D-07 Max=3.10D-06 NDo=     1
 LinEq1:  Iter=  6 NonCon=     1 RMS=3.37D-08 Max=3.75D-07 NDo=     1
 LinEq1:  Iter=  7 NonCon=     1 RMS=6.40D-09 Max=8.43D-08 NDo=     1
 LinEq1:  Iter=  8 NonCon=     0 RMS=1.40D-09 Max=2.74D-08 NDo=     1
 Linear equations converged to 4.373D-09 4.373D-08 after     8 iterations.
 Angle between quadratic step and gradient=  54.94 degrees.
     ILin= 1 X=0.000D+00 Y=-9.368448422310D-02 DE= 0.00D+00 F= -2.31D-03
     ILin= 2 X=1.000D+00 Y=-9.471813445111D-02 DE=-1.03D-03 F=  3.87D-04
     Accept linear search using points  1 and  2.
     An  expanding polynomial of degree  2 produced  0.8744
 Iteration  15 EE=-0.947421129059194E-01 Delta-E=       -0.001057628683 Grad=1.702D-03 Max rot=    0.0370 deg.
 QCNR:  CnvC1=4.37D-09 CnvC2=4.37D-08
 LinEq1:  Iter=  0 NonCon=     1 RMS=8.47D-05 Max=1.88D-03 NDo=     1
 LinEq1:  Iter=  1 NonCon=     1 RMS=1.55D-05 Max=2.13D-04 NDo=     1
 LinEq1:  Iter=  2 NonCon=     1 RMS=4.15D-06 Max=7.75D-05 NDo=     1
 LinEq1:  Iter=  3 NonCon=     1 RMS=1.12D-06 Max=2.60D-05 NDo=     1
 LinEq1:  Iter=  4 NonCon=     1 RMS=3.26D-07 Max=5.53D-06 NDo=     1
 LinEq1:  Iter=  5 NonCon=     1 RMS=5.96D-08 Max=6.60D-07 NDo=     1
 LinEq1:  Iter=  6 NonCon=     1 RMS=1.22D-08 Max=2.45D-07 NDo=     1
 LinEq1:  Iter=  7 NonCon=     1 RMS=3.34D-09 Max=5.11D-08 NDo=     1
 LinEq1:  Iter=  8 NonCon=     0 RMS=7.29D-10 Max=1.07D-08 NDo=     1
 Linear equations converged to 4.373D-09 4.373D-08 after     8 iterations.
 Angle between quadratic step and gradient=  39.59 degrees.
     ILin= 1 X=0.000D+00 Y=-9.474211290592D-02 DE= 0.00D+00 F= -2.45D-05
     ILin= 2 X=1.000D+00 Y=-9.475434549211D-02 DE=-1.22D-05 F=  4.96D-09
     Accept linear search using points  1 and  2.
     An  expanding polynomial of degree  2 produced  0.9998
     Minimum is close to point  2 DX= -2.03D-04 DF= -5.02D-13 DXR=  2.03D-04 DFR=  4.10D-08 which will be used.
 Iteration  16 EE=-0.947543454921060E-01 Delta-E=       -0.000012232586 Grad=2.104D-05 Max rot=    0.0004 deg.
 QCNR:  CnvC1=2.10D-10 CnvC2=2.10D-09
 LinEq1:  Iter=  0 NonCon=     1 RMS=7.74D-07 Max=1.09D-05 NDo=     1
 LinEq1:  Iter=  1 NonCon=     1 RMS=2.67D-07 Max=6.14D-06 NDo=     1
 LinEq1:  Iter=  2 NonCon=     1 RMS=5.76D-08 Max=1.09D-06 NDo=     1
 LinEq1:  Iter=  3 NonCon=     1 RMS=1.24D-08 Max=1.43D-07 NDo=     1
 LinEq1:  Iter=  4 NonCon=     1 RMS=2.48D-09 Max=3.35D-08 NDo=     1
 LinEq1:  Iter=  5 NonCon=     1 RMS=6.73D-10 Max=1.30D-08 NDo=     1
 LinEq1:  Iter=  6 NonCon=     1 RMS=1.91D-10 Max=3.90D-09 NDo=     1
 LinEq1:  Iter=  7 NonCon=     0 RMS=5.17D-11 Max=8.42D-10 NDo=     1
 Linear equations converged to 2.104D-10 2.104D-09 after     7 iterations.
 Angle between quadratic step and gradient=  67.02 degrees.
     ILin= 1 X=0.000D+00 Y=-9.475434549211D-02 DE= 0.00D+00 F= -5.19D-09
     ILin= 2 X=1.000D+00 Y=-9.475434808166D-02 DE=-2.59D-09
 Iteration  17 EE=-0.947543480816648E-01 Delta-E=       -0.000000002590 Grad=1.613D-06 Max rot=    0.0000 deg.
 QCNR:  CnvC1=1.61D-11 CnvC2=1.61D-10
 LinEq1:  Iter=  0 NonCon=     1 RMS=5.75D-08 Max=9.36D-07 NDo=     1
 LinEq1:  Iter=  1 NonCon=     1 RMS=2.08D-08 Max=4.48D-07 NDo=     1
 LinEq1:  Iter=  2 NonCon=     1 RMS=4.77D-09 Max=9.60D-08 NDo=     1
 LinEq1:  Iter=  3 NonCon=     1 RMS=1.42D-09 Max=2.94D-08 NDo=     1
 LinEq1:  Iter=  4 NonCon=     1 RMS=3.16D-10 Max=3.42D-09 NDo=     1
 LinEq1:  Iter=  5 NonCon=     1 RMS=6.44D-11 Max=5.31D-10 NDo=     1
 LinEq1:  Iter=  6 NonCon=     1 RMS=1.52D-11 Max=3.33D-10 NDo=     1
 LinEq1:  Iter=  7 NonCon=     0 RMS=3.97D-12 Max=7.04D-11 NDo=     1
 Linear equations converged to 1.613D-11 1.613D-10 after     7 iterations.
 Angle between quadratic step and gradient=  59.82 degrees.
     ILin= 1 X=0.000D+00 Y=-9.475434808166D-02 DE= 0.00D+00 F= -1.70D-11
     ILin= 2 X=1.000D+00 Y=-9.475434809031D-02 DE=-8.64D-12
 Iteration  18 EE=-0.947543480903050E-01 Delta-E=       -0.000000000009 Grad=2.062D-08 Max rot=    0.0000 deg.
 Rotation gradient small -- convergence achieved.
 SCF Done:  E(UPM6) = -0.947543480903E-01 a.u. after   18 cycles
            Convg  =    0.2062D-07                    63 Fock formations.
              S**2 =  0.8466                  -V/T =  0.9978
 <Sx>= 0.0000 <Sy>= 0.0000 <Sz>= 0.5000 <S**2>= 0.8466 S= 0.5472
 <L.S>= 0.000000000000E+00
 Annihilation of the first spin contaminant:
 S**2 before annihilation     0.8466,   after     0.7516
 Leave Link  508 at Thu Feb  4 18:07:37 2021, MaxMem=    33554432 cpu:         0.2
 (Enter /apps/applications/gaussian/G09.D01/2/default/g09/l801.exe)
 Range of M.O.s used for correlation:     1    63
 NBasis=    63 NAE=    38 NBE=    37 NFC=     0 NFV=     0
 NROrb=     63 NOA=    38 NOB=    37 NVA=    25 NVB=    26
 Leave Link  801 at Thu Feb  4 18:07:37 2021, MaxMem=    33554432 cpu:         0.0
 (Enter /apps/applications/gaussian/G09.D01/2/default/g09/l1101.exe)
 Using compressed storage, NAtomX=    24.
 Will process     25 centers per pass.
 Leave Link 1101 at Thu Feb  4 18:07:37 2021, MaxMem=    33554432 cpu:         0.1
 (Enter /apps/applications/gaussian/G09.D01/2/default/g09/l1102.exe)
 Symmetrizing basis deriv contribution to polar:
 IMax=3 JMax=2 DiffMx= 0.00D+00
 Leave Link 1102 at Thu Feb  4 18:07:37 2021, MaxMem=    33554432 cpu:         0.0
 (Enter /apps/applications/gaussian/G09.D01/2/default/g09/l1110.exe)
 Forming Gx(P) for the SCF density, NAtomX=    24.
 Integral derivatives from FoFJK, PRISM(SPDF).
 Do as many integral derivatives as possible in FoFJK.
 G2DrvN: MDV=      33495245.
 G2DrvN: will do    25 centers at a time, making    1 passes.
 Calling FoFCou, ICntrl=  3107 FMM=F I1Cent=   0 AccDes= 0.00D+00.
 FoFJK:  IHMeth=40 ICntrl=    3107 DoSepK=F KAlg= 0 I1Cent=   0 FoldK=F
 IRaf=         0 NMat=   1 IRICut=       1 DoRegI=T DoRafI=F ISym2E= 0.
 FoFCou: FMM=F IPFlag=           0 FMFlag=      100000 FMFlg1=           0
         NFxFlg=           0 DoJE=F BraDBF=F KetDBF=F FulRan=T
         wScrn=  0.000000 ICntrl=    3107 IOpCl=  1 I1Cent=           0 NGrid=           0
         NMat0=    1 NMatS0=      1 NMatT0=    0 NMatD0=    1 NMtDS0=    0 NMtDT0=    0
 Symmetry not used in FoFCou.
 End of G2Drv F.D. properties file   721 does not exist.
 End of G2Drv F.D. properties file   722 does not exist.
 End of G2Drv F.D. properties file   788 does not exist.
 Leave Link 1110 at Thu Feb  4 18:07:37 2021, MaxMem=    33554432 cpu:         0.0
 (Enter /apps/applications/gaussian/G09.D01/2/default/g09/l1002.exe)
 Minotr:  UHF open shell wavefunction.
          IDoAtm=111111111111111111111111
          Direct CPHF calculation.
          Differentiating once with respect to electric field.
                with respect to dipole field.
          Differentiating once with respect to nuclear coordinates.
          Electric field/nuclear overlap derivatives assumed to be zero.
          Requested convergence is 1.0D-08 RMS, and 1.0D-07 maximum.
          NewPWx=T KeepS1=F KeepF1=F KeepIn=T MapXYZ=F SortEE=F KeepMc=T.
          MDV=      33495171 using IRadAn=       2.
 Keep J ints in memory in canonical form, NReq=894630.
 FoFCou: FMM=F IPFlag=           0 FMFlag=           0 FMFlg1=           0
         NFxFlg=           0 DoJE=F BraDBF=F KetDBF=F FulRan=T
         wScrn=  0.000000 ICntrl=     600 IOpCl=  2 I1Cent=           0 NGrid=           0
         NMat0=    1 NMatS0=    141 NMatT0=    0 NMatD0=    1 NMtDS0=    0 NMtDT0=    0
 Symmetry not used in FoFCou.
          Solving linear equations separately, MaxMat=       0.
          There are    75 degrees of freedom in the 1st order CPHF.  IDoFFX=5 NUNeed=    75.
 LinEq1:  Iter=  0 NonCon=    75 RMS=2.25D-01 Max=5.40D+00 NDo=    75
 AX will form    75 AO Fock derivatives at one time.
 LinEq1:  Iter=  1 NonCon=    75 RMS=4.93D-02 Max=1.00D+00 NDo=    75
 LinEq1:  Iter=  2 NonCon=    75 RMS=1.76D-02 Max=2.63D-01 NDo=    75
 LinEq1:  Iter=  3 NonCon=    75 RMS=4.59D-03 Max=7.45D-02 NDo=    75
 LinEq1:  Iter=  4 NonCon=    75 RMS=9.38D-04 Max=1.05D-02 NDo=    75
 LinEq1:  Iter=  5 NonCon=    75 RMS=1.90D-04 Max=2.01D-03 NDo=    75
 LinEq1:  Iter=  6 NonCon=    75 RMS=4.34D-05 Max=6.03D-04 NDo=    75
 LinEq1:  Iter=  7 NonCon=    75 RMS=1.07D-05 Max=1.73D-04 NDo=    75
 LinEq1:  Iter=  8 NonCon=    56 RMS=2.55D-06 Max=3.32D-05 NDo=    75
 LinEq1:  Iter=  9 NonCon=    23 RMS=6.26D-07 Max=7.60D-06 NDo=    75
 LinEq1:  Iter= 10 NonCon=     3 RMS=1.19D-07 Max=1.13D-06 NDo=    75
 LinEq1:  Iter= 11 NonCon=     3 RMS=2.11D-08 Max=2.75D-07 NDo=    75
 LinEq1:  Iter= 12 NonCon=     0 RMS=3.94D-09 Max=7.60D-08 NDo=    75
 Linear equations converged to 1.000D-08 1.000D-07 after    12 iterations.
 FullF1:  Do perturbations    1 to     3.
 Isotropic polarizability for W=    0.000000      119.66 Bohr**3.
 End of Minotr F.D. properties file   721 does not exist.
 End of Minotr F.D. properties file   722 does not exist.
 End of Minotr F.D. properties file   788 does not exist.
 Leave Link 1002 at Thu Feb  4 18:07:38 2021, MaxMem=    33554432 cpu:         0.8
 (Enter /apps/applications/gaussian/G09.D01/2/default/g09/l601.exe)
 Copying SCF densities to generalized density rwf, IOpCl= 1 IROHF=0.

 **********************************************************************

            Population analysis using the SCF density.

 **********************************************************************

 Alpha  occ. eigenvalues --   -1.30816  -1.18401  -1.13821  -1.11947  -1.08681
 Alpha  occ. eigenvalues --   -1.07266  -1.01157  -0.99892  -0.98602  -0.89937
 Alpha  occ. eigenvalues --   -0.80783  -0.76146  -0.72151  -0.70365  -0.66451
 Alpha  occ. eigenvalues --   -0.64741  -0.63827  -0.62813  -0.62012  -0.61636
 Alpha  occ. eigenvalues --   -0.59893  -0.58108  -0.57827  -0.55639  -0.55255
 Alpha  occ. eigenvalues --   -0.54004  -0.52711  -0.50578  -0.49206  -0.48444
 Alpha  occ. eigenvalues --   -0.47484  -0.46880  -0.43494  -0.41653  -0.38372
 Alpha  occ. eigenvalues --   -0.37666  -0.36946  -0.32541
 Alpha virt. eigenvalues --   -0.03907  -0.02002  -0.00951   0.01104   0.05669
 Alpha virt. eigenvalues --    0.08105   0.08380   0.09969   0.10492   0.11850
 Alpha virt. eigenvalues --    0.12649   0.13357   0.13696   0.15575   0.16021
 Alpha virt. eigenvalues --    0.16571   0.17622   0.18009   0.18359   0.19146
 Alpha virt. eigenvalues --    0.19271   0.19959   0.20700   0.21278   0.23437
  Beta  occ. eigenvalues --   -1.31841  -1.18396  -1.12264  -1.09774  -1.07717
  Beta  occ. eigenvalues --   -1.03548  -1.00211  -0.98639  -0.90605  -0.89970
  Beta  occ. eigenvalues --   -0.80783  -0.76097  -0.72149  -0.70358  -0.66388
  Beta  occ. eigenvalues --   -0.65262  -0.64038  -0.62538  -0.62062  -0.60161
  Beta  occ. eigenvalues --   -0.58539  -0.55980  -0.55629  -0.55222  -0.54037
  Beta  occ. eigenvalues --   -0.52252  -0.50292  -0.49239  -0.48300  -0.47798
  Beta  occ. eigenvalues --   -0.46916  -0.45499  -0.43418  -0.40370  -0.38362
  Beta  occ. eigenvalues --   -0.37659  -0.28097
  Beta virt. eigenvalues --   -0.04353  -0.03501  -0.00951   0.01098   0.02707
  Beta virt. eigenvalues --    0.05407   0.08379   0.09965   0.10507   0.11848
  Beta virt. eigenvalues --    0.12056   0.12671   0.13312   0.13773   0.15962
  Beta virt. eigenvalues --    0.16076   0.16580   0.17649   0.18069   0.18377
  Beta virt. eigenvalues --    0.19171   0.19272   0.19960   0.20717   0.21299
  Beta virt. eigenvalues --    0.23437
          Condensed to atoms (all electrons):
               1          2          3          4          5          6
     1  O    6.197649   0.000000   0.000000   0.000000   0.000000   0.000000
     2  C    0.000000   3.454623   0.000000   0.000000   0.000000   0.000000
     3  C    0.000000   0.000000   4.584878   0.000000   0.000000   0.000000
     4  C    0.000000   0.000000   0.000000   4.146315   0.000000   0.000000
     5  C    0.000000   0.000000   0.000000   0.000000   4.316401   0.000000
     6  C    0.000000   0.000000   0.000000   0.000000   0.000000   4.069589
     7  H    0.000000   0.000000   0.000000   0.000000   0.000000   0.000000
     8  C    0.000000   0.000000   0.000000   0.000000   0.000000   0.000000
     9  O    0.000000   0.000000   0.000000   0.000000   0.000000   0.000000
    10  C    0.000000   0.000000   0.000000   0.000000   0.000000   0.000000
    11  H    0.000000   0.000000   0.000000   0.000000   0.000000   0.000000
    12  H    0.000000   0.000000   0.000000   0.000000   0.000000   0.000000
    13  H    0.000000   0.000000   0.000000   0.000000   0.000000   0.000000
    14  H    0.000000   0.000000   0.000000   0.000000   0.000000   0.000000
    15  H    0.000000   0.000000   0.000000   0.000000   0.000000   0.000000
    16  H    0.000000   0.000000   0.000000   0.000000   0.000000   0.000000
    17  H    0.000000   0.000000   0.000000   0.000000   0.000000   0.000000
    18  H    0.000000   0.000000   0.000000   0.000000   0.000000   0.000000
    19  H    0.000000   0.000000   0.000000   0.000000   0.000000   0.000000
    20  H    0.000000   0.000000   0.000000   0.000000   0.000000   0.000000
    21  O    0.000000   0.000000   0.000000   0.000000   0.000000   0.000000
    22  O    0.000000   0.000000   0.000000   0.000000   0.000000   0.000000
    23  O    0.000000   0.000000   0.000000   0.000000   0.000000   0.000000
    24  O    0.000000   0.000000   0.000000   0.000000   0.000000   0.000000
               7          8          9         10         11         12
     1  O    0.000000   0.000000   0.000000   0.000000   0.000000   0.000000
     2  C    0.000000   0.000000   0.000000   0.000000   0.000000   0.000000
     3  C    0.000000   0.000000   0.000000   0.000000   0.000000   0.000000
     4  C    0.000000   0.000000   0.000000   0.000000   0.000000   0.000000
     5  C    0.000000   0.000000   0.000000   0.000000   0.000000   0.000000
     6  C    0.000000   0.000000   0.000000   0.000000   0.000000   0.000000
     7  H    0.830581   0.000000   0.000000   0.000000   0.000000   0.000000
     8  C    0.000000   3.425941   0.000000   0.000000   0.000000   0.000000
     9  O    0.000000   0.000000   6.488534   0.000000   0.000000   0.000000
    10  C    0.000000   0.000000   0.000000   4.621796   0.000000   0.000000
    11  H    0.000000   0.000000   0.000000   0.000000   0.712520   0.000000
    12  H    0.000000   0.000000   0.000000   0.000000   0.000000   0.737602
    13  H    0.000000   0.000000   0.000000   0.000000   0.000000   0.000000
    14  H    0.000000   0.000000   0.000000   0.000000   0.000000   0.000000
    15  H    0.000000   0.000000   0.000000   0.000000   0.000000   0.000000
    16  H    0.000000   0.000000   0.000000   0.000000   0.000000   0.000000
    17  H    0.000000   0.000000   0.000000   0.000000   0.000000   0.000000
    18  H    0.000000   0.000000   0.000000   0.000000   0.000000   0.000000
    19  H    0.000000   0.000000   0.000000   0.000000   0.000000   0.000000
    20  H    0.000000   0.000000   0.000000   0.000000   0.000000   0.000000
    21  O    0.000000   0.000000   0.000000   0.000000   0.000000   0.000000
    22  O    0.000000   0.000000   0.000000   0.000000   0.000000   0.000000
    23  O    0.000000   0.000000   0.000000   0.000000   0.000000   0.000000
    24  O    0.000000   0.000000   0.000000   0.000000   0.000000   0.000000
              13         14         15         16         17         18
     1  O    0.000000   0.000000   0.000000   0.000000   0.000000   0.000000
     2  C    0.000000   0.000000   0.000000   0.000000   0.000000   0.000000
     3  C    0.000000   0.000000   0.000000   0.000000   0.000000   0.000000
     4  C    0.000000   0.000000   0.000000   0.000000   0.000000   0.000000
     5  C    0.000000   0.000000   0.000000   0.000000   0.000000   0.000000
     6  C    0.000000   0.000000   0.000000   0.000000   0.000000   0.000000
     7  H    0.000000   0.000000   0.000000   0.000000   0.000000   0.000000
     8  C    0.000000   0.000000   0.000000   0.000000   0.000000   0.000000
     9  O    0.000000   0.000000   0.000000   0.000000   0.000000   0.000000
    10  C    0.000000   0.000000   0.000000   0.000000   0.000000   0.000000
    11  H    0.000000   0.000000   0.000000   0.000000   0.000000   0.000000
    12  H    0.000000   0.000000   0.000000   0.000000   0.000000   0.000000
    13  H    0.680654   0.000000   0.000000   0.000000   0.000000   0.000000
    14  H    0.000000   0.814961   0.000000   0.000000   0.000000   0.000000
    15  H    0.000000   0.000000   0.871406   0.000000   0.000000   0.000000
    16  H    0.000000   0.000000   0.000000   0.848500   0.000000   0.000000
    17  H    0.000000   0.000000   0.000000   0.000000   0.831480   0.000000
    18  H    0.000000   0.000000   0.000000   0.000000   0.000000   0.797286
    19  H    0.000000   0.000000   0.000000   0.000000   0.000000   0.000000
    20  H    0.000000   0.000000   0.000000   0.000000   0.000000   0.000000
    21  O    0.000000   0.000000   0.000000   0.000000   0.000000   0.000000
    22  O    0.000000   0.000000   0.000000   0.000000   0.000000   0.000000
    23  O    0.000000   0.000000   0.000000   0.000000   0.000000   0.000000
    24  O    0.000000   0.000000   0.000000   0.000000   0.000000   0.000000
              19         20         21         22         23         24
     1  O    0.000000   0.000000   0.000000   0.000000   0.000000   0.000000
     2  C    0.000000   0.000000   0.000000   0.000000   0.000000   0.000000
     3  C    0.000000   0.000000   0.000000   0.000000   0.000000   0.000000
     4  C    0.000000   0.000000   0.000000   0.000000   0.000000   0.000000
     5  C    0.000000   0.000000   0.000000   0.000000   0.000000   0.000000
     6  C    0.000000   0.000000   0.000000   0.000000   0.000000   0.000000
     7  H    0.000000   0.000000   0.000000   0.000000   0.000000   0.000000
     8  C    0.000000   0.000000   0.000000   0.000000   0.000000   0.000000
     9  O    0.000000   0.000000   0.000000   0.000000   0.000000   0.000000
    10  C    0.000000   0.000000   0.000000   0.000000   0.000000   0.000000
    11  H    0.000000   0.000000   0.000000   0.000000   0.000000   0.000000
    12  H    0.000000   0.000000   0.000000   0.000000   0.000000   0.000000
    13  H    0.000000   0.000000   0.000000   0.000000   0.000000   0.000000
    14  H    0.000000   0.000000   0.000000   0.000000   0.000000   0.000000
    15  H    0.000000   0.000000   0.000000   0.000000   0.000000   0.000000
    16  H    0.000000   0.000000   0.000000   0.000000   0.000000   0.000000
    17  H    0.000000   0.000000   0.000000   0.000000   0.000000   0.000000
    18  H    0.000000   0.000000   0.000000   0.000000   0.000000   0.000000
    19  H    0.781398   0.000000   0.000000   0.000000   0.000000   0.000000
    20  H    0.000000   0.798629   0.000000   0.000000   0.000000   0.000000
    21  O    0.000000   0.000000   6.183959   0.000000   0.000000   0.000000
    22  O    0.000000   0.000000   0.000000   6.303581   0.000000   0.000000
    23  O    0.000000   0.000000   0.000000   0.000000   6.309659   0.000000
    24  O    0.000000   0.000000   0.000000   0.000000   0.000000   6.192059
          Atomic-Atomic Spin Densities.
               1          2          3          4          5          6
     1  O   -0.093842   0.000000   0.000000   0.000000   0.000000   0.000000
     2  C    0.000000  -0.108281   0.000000   0.000000   0.000000   0.000000
     3  C    0.000000   0.000000   0.118575   0.000000   0.000000   0.000000
     4  C    0.000000   0.000000   0.000000  -0.004970   0.000000   0.000000
     5  C    0.000000   0.000000   0.000000   0.000000   0.003082   0.000000
     6  C    0.000000   0.000000   0.000000   0.000000   0.000000  -0.000189
     7  H    0.000000   0.000000   0.000000   0.000000   0.000000   0.000000
     8  C    0.000000   0.000000   0.000000   0.000000   0.000000   0.000000
     9  O    0.000000   0.000000   0.000000   0.000000   0.000000   0.000000
    10  C    0.000000   0.000000   0.000000   0.000000   0.000000   0.000000
    11  H    0.000000   0.000000   0.000000   0.000000   0.000000   0.000000
    12  H    0.000000   0.000000   0.000000   0.000000   0.000000   0.000000
    13  H    0.000000   0.000000   0.000000   0.000000   0.000000   0.000000
    14  H    0.000000   0.000000   0.000000   0.000000   0.000000   0.000000
    15  H    0.000000   0.000000   0.000000   0.000000   0.000000   0.000000
    16  H    0.000000   0.000000   0.000000   0.000000   0.000000   0.000000
    17  H    0.000000   0.000000   0.000000   0.000000   0.000000   0.000000
    18  H    0.000000   0.000000   0.000000   0.000000   0.000000   0.000000
    19  H    0.000000   0.000000   0.000000   0.000000   0.000000   0.000000
    20  H    0.000000   0.000000   0.000000   0.000000   0.000000   0.000000
    21  O    0.000000   0.000000   0.000000   0.000000   0.000000   0.000000
    22  O    0.000000   0.000000   0.000000   0.000000   0.000000   0.000000
    23  O    0.000000   0.000000   0.000000   0.000000   0.000000   0.000000
    24  O    0.000000   0.000000   0.000000   0.000000   0.000000   0.000000
               7          8          9         10         11         12
     1  O    0.000000   0.000000   0.000000   0.000000   0.000000   0.000000
     2  C    0.000000   0.000000   0.000000   0.000000   0.000000   0.000000
     3  C    0.000000   0.000000   0.000000   0.000000   0.000000   0.000000
     4  C    0.000000   0.000000   0.000000   0.000000   0.000000   0.000000
     5  C    0.000000   0.000000   0.000000   0.000000   0.000000   0.000000
     6  C    0.000000   0.000000   0.000000   0.000000   0.000000   0.000000
     7  H    0.000047   0.000000   0.000000   0.000000   0.000000   0.000000
     8  C    0.000000  -0.000021   0.000000   0.000000   0.000000   0.000000
     9  O    0.000000   0.000000   0.000046   0.000000   0.000000   0.000000
    10  C    0.000000   0.000000   0.000000  -0.000016   0.000000   0.000000
    11  H    0.000000   0.000000   0.000000   0.000000  -0.000005   0.000000
    12  H    0.000000   0.000000   0.000000   0.000000   0.000000  -0.006422
    13  H    0.000000   0.000000   0.000000   0.000000   0.000000   0.000000
    14  H    0.000000   0.000000   0.000000   0.000000   0.000000   0.000000
    15  H    0.000000   0.000000   0.000000   0.000000   0.000000   0.000000
    16  H    0.000000   0.000000   0.000000   0.000000   0.000000   0.000000
    17  H    0.000000   0.000000   0.000000   0.000000   0.000000   0.000000
    18  H    0.000000   0.000000   0.000000   0.000000   0.000000   0.000000
    19  H    0.000000   0.000000   0.000000   0.000000   0.000000   0.000000
    20  H    0.000000   0.000000   0.000000   0.000000   0.000000   0.000000
    21  O    0.000000   0.000000   0.000000   0.000000   0.000000   0.000000
    22  O    0.000000   0.000000   0.000000   0.000000   0.000000   0.000000
    23  O    0.000000   0.000000   0.000000   0.000000   0.000000   0.000000
    24  O    0.000000   0.000000   0.000000   0.000000   0.000000   0.000000
              13         14         15         16         17         18
     1  O    0.000000   0.000000   0.000000   0.000000   0.000000   0.000000
     2  C    0.000000   0.000000   0.000000   0.000000   0.000000   0.000000
     3  C    0.000000   0.000000   0.000000   0.000000   0.000000   0.000000
     4  C    0.000000   0.000000   0.000000   0.000000   0.000000   0.000000
     5  C    0.000000   0.000000   0.000000   0.000000   0.000000   0.000000
     6  C    0.000000   0.000000   0.000000   0.000000   0.000000   0.000000
     7  H    0.000000   0.000000   0.000000   0.000000   0.000000   0.000000
     8  C    0.000000   0.000000   0.000000   0.000000   0.000000   0.000000
     9  O    0.000000   0.000000   0.000000   0.000000   0.000000   0.000000
    10  C    0.000000   0.000000   0.000000   0.000000   0.000000   0.000000
    11  H    0.000000   0.000000   0.000000   0.000000   0.000000   0.000000
    12  H    0.000000   0.000000   0.000000   0.000000   0.000000   0.000000
    13  H   -0.085184   0.000000   0.000000   0.000000   0.000000   0.000000
    14  H    0.000000   0.001847   0.000000   0.000000   0.000000   0.000000
    15  H    0.000000   0.000000   0.000676   0.000000   0.000000   0.000000
    16  H    0.000000   0.000000   0.000000   0.000025   0.000000   0.000000
    17  H    0.000000   0.000000   0.000000   0.000000  -0.000172   0.000000
    18  H    0.000000   0.000000   0.000000   0.000000   0.000000   0.000000
    19  H    0.000000   0.000000   0.000000   0.000000   0.000000   0.000000
    20  H    0.000000   0.000000   0.000000   0.000000   0.000000   0.000000
    21  O    0.000000   0.000000   0.000000   0.000000   0.000000   0.000000
    22  O    0.000000   0.000000   0.000000   0.000000   0.000000   0.000000
    23  O    0.000000   0.000000   0.000000   0.000000   0.000000   0.000000
    24  O    0.000000   0.000000   0.000000   0.000000   0.000000   0.000000
              19         20         21         22         23         24
     1  O    0.000000   0.000000   0.000000   0.000000   0.000000   0.000000
     2  C    0.000000   0.000000   0.000000   0.000000   0.000000   0.000000
     3  C    0.000000   0.000000   0.000000   0.000000   0.000000   0.000000
     4  C    0.000000   0.000000   0.000000   0.000000   0.000000   0.000000
     5  C    0.000000   0.000000   0.000000   0.000000   0.000000   0.000000
     6  C    0.000000   0.000000   0.000000   0.000000   0.000000   0.000000
     7  H    0.000000   0.000000   0.000000   0.000000   0.000000   0.000000
     8  C    0.000000   0.000000   0.000000   0.000000   0.000000   0.000000
     9  O    0.000000   0.000000   0.000000   0.000000   0.000000   0.000000
    10  C    0.000000   0.000000   0.000000   0.000000   0.000000   0.000000
    11  H    0.000000   0.000000   0.000000   0.000000   0.000000   0.000000
    12  H    0.000000   0.000000   0.000000   0.000000   0.000000   0.000000
    13  H    0.000000   0.000000   0.000000   0.000000   0.000000   0.000000
    14  H    0.000000   0.000000   0.000000   0.000000   0.000000   0.000000
    15  H    0.000000   0.000000   0.000000   0.000000   0.000000   0.000000
    16  H    0.000000   0.000000   0.000000   0.000000   0.000000   0.000000
    17  H    0.000000   0.000000   0.000000   0.000000   0.000000   0.000000
    18  H    0.000000   0.000000   0.000000   0.000000   0.000000   0.000000
    19  H    0.000005   0.000000   0.000000   0.000000   0.000000   0.000000
    20  H    0.000000   0.000004   0.000000   0.000000   0.000000   0.000000
    21  O    0.000000   0.000000   0.000018   0.000000   0.000000   0.000000
    22  O    0.000000   0.000000   0.000000   0.000018   0.000000   0.000000
    23  O    0.000000   0.000000   0.000000   0.000000   0.640421   0.000000
    24  O    0.000000   0.000000   0.000000   0.000000   0.000000   0.534340
 Mulliken charges and spin densities:
               1          2
     1  O   -0.197649  -0.093842
     2  C    0.545377  -0.108281
     3  C   -0.584878   0.118575
     4  C   -0.146315  -0.004970
     5  C   -0.316401   0.003082
     6  C   -0.069589  -0.000189
     7  H    0.169419   0.000047
     8  C    0.574059  -0.000021
     9  O   -0.488534   0.000046
    10  C   -0.621796  -0.000016
    11  H    0.287480  -0.000005
    12  H    0.262398  -0.006422
    13  H    0.319346  -0.085184
    14  H    0.185039   0.001847
    15  H    0.128594   0.000676
    16  H    0.151500   0.000025
    17  H    0.168520  -0.000172
    18  H    0.202714   0.000000
    19  H    0.218602   0.000005
    20  H    0.201371   0.000004
    21  O   -0.183959   0.000018
    22  O   -0.303581   0.000018
    23  O   -0.309659   0.640421
    24  O   -0.192059   0.534340
 Sum of Mulliken charges =   0.00000   1.00000
 Mulliken charges and spin densities with hydrogens summed into heavy atoms:
               1          2
     1  O   -0.197649  -0.093842
     2  C    0.545377  -0.108281
     3  C   -0.322480   0.112152
     4  C    0.167317  -0.002447
     5  C    0.003619   0.002935
     6  C    0.099830  -0.000142
     8  C    0.574059  -0.000021
     9  O   -0.488534   0.000046
    10  C    0.000891  -0.000008
    21  O   -0.183959   0.000018
    22  O   -0.016100   0.000013
    23  O   -0.309659   0.640421
    24  O    0.127287   0.449155
 APT charges:
               1
     1  O   -0.944797
     2  C    1.152417
     3  C   -0.288989
     4  C   -0.005281
     5  C   -0.350347
     6  C   -0.088217
     7  H    0.142951
     8  C    1.163993
     9  O   -0.775152
    10  C   -0.972166
    11  H    0.267428
    12  H    0.182316
    13  H   -0.078485
    14  H    0.137323
    15  H    0.101696
    16  H    0.135448
    17  H    0.155956
    18  H    0.253485
    19  H    0.271161
    20  H    0.255050
    21  O   -0.103327
    22  O   -0.366985
    23  O   -0.256934
    24  O    0.012541
 Sum of APT charges =   0.00109
 APT charges with hydrogens summed into heavy atoms:
               1
     1  O   -0.944797
     2  C    1.152417
     3  C   -0.106673
     4  C    0.233737
     5  C   -0.058943
     6  C    0.054734
     8  C    1.163993
     9  O   -0.775152
    10  C   -0.192469
    21  O   -0.103327
    22  O   -0.099557
    23  O   -0.256934
    24  O   -0.065944
 Charge=              0.0000 electrons
 Dipole moment (field-independent basis, Debye):
    X=             -1.3651    Y=             -3.8355    Z=              2.7827  Tot=              4.9313
 N-N= 5.175132347170D+02 E-N=-9.393964733484D+02  KE=-4.403397255857D+01
  Exact polarizability:  81.672 -26.733 163.090  31.671 -59.647 114.210
 Approx polarizability:  55.879  -9.477  80.126  18.304 -12.895  65.810
 Leave Link  601 at Thu Feb  4 18:07:38 2021, MaxMem=    33554432 cpu:         0.0
 (Enter /apps/applications/gaussian/G09.D01/2/default/g09/l701.exe)
 Compute integral second derivatives.
 ... and contract with generalized density number  0.
 Leave Link  701 at Thu Feb  4 18:07:38 2021, MaxMem=    33554432 cpu:         0.1
 (Enter /apps/applications/gaussian/G09.D01/2/default/g09/l702.exe)
 L702 exits ... SP integral derivatives will be done elsewhere.
 Leave Link  702 at Thu Feb  4 18:07:38 2021, MaxMem=    33554432 cpu:         0.0
 (Enter /apps/applications/gaussian/G09.D01/2/default/g09/l703.exe)
 Compute integral second derivatives, UseDBF=F ICtDFT=           0.
 Integral derivatives from FoFJK, PRISM(SPDF).
 Calling FoFJK, ICntrl=    100127 FMM=F ISym2X=0 I1Cent= 0 IOpClX= 1 NMat=1 NMatS=1 NMatT=0.
 FoFJK:  IHMeth=40 ICntrl=  100127 DoSepK=F KAlg= 0 I1Cent=   0 FoldK=F
 IRaf=         0 NMat=   1 IRICut=       1 DoRegI=T DoRafI=F ISym2E= 0.
 FoFCou: FMM=F IPFlag=           0 FMFlag=      100000 FMFlg1=         800
         NFxFlg=           0 DoJE=F BraDBF=F KetDBF=F FulRan=T
         wScrn=  0.000000 ICntrl=  100127 IOpCl=  1 I1Cent=           0 NGrid=           0
         NMat0=    1 NMatS0=      1 NMatT0=    0 NMatD0=    1 NMtDS0=    0 NMtDT0=    0
 Symmetry not used in FoFCou.
 Leave Link  703 at Thu Feb  4 18:07:38 2021, MaxMem=    33554432 cpu:         0.1
 (Enter /apps/applications/gaussian/G09.D01/2/default/g09/l716.exe)
 Dipole        =-5.37070395D-01-1.50898275D+00 1.09481316D+00
 Polarizability= 8.16721582D+01-2.67331252D+01 1.63089506D+02
                 3.16711437D+01-5.96467992D+01 1.14210207D+02
 HyperPolar    = 3.22002000D+02-1.23892110D+03 5.08000662D+03
                -2.31320841D+04 8.86947523D+02-4.06576189D+03
                 1.80895670D+04 3.16291060D+03-1.44784617D+04
                 1.15572694D+04
 -------------------------------------------------------------------
 Center     Atomic                   Forces (Hartrees/Bohr)
 Number     Number              X              Y              Z
 -------------------------------------------------------------------
      1        8           0.005826549   -0.007187404   -0.000481625
      2        6          -0.007200722    0.005541548    0.000724093
      3        6          -0.020004724   -0.022321986    0.033335724
      4        6           0.002531162    0.001256727   -0.001928596
      5        6           0.000735480   -0.000761884   -0.000159760
      6        6           0.000064769   -0.000910013    0.000146265
      7        1          -0.000160458   -0.000483915    0.001872396
      8        6          -0.003152221   -0.002416927    0.000280913
      9        8           0.002201674    0.000746005   -0.000376970
     10        6           0.002267241   -0.000231733   -0.000906326
     11        1           0.000235817    0.000111483   -0.000184433
     12        1           0.000424314   -0.003144639    0.000242101
     13        1           0.014563293    0.044830651   -0.035416195
     14        1          -0.000413958   -0.001645947   -0.000751722
     15        1           0.001303153   -0.000126627    0.001054252
     16        1          -0.000612203   -0.000791985   -0.000538011
     17        1           0.000777315   -0.000108623    0.000500900
     18        1          -0.000000467    0.000699682    0.000597361
     19        1           0.000144676   -0.000541759   -0.000213195
     20        1          -0.000470603    0.000506862   -0.000148269
     21        8          -0.000174606    0.001314870   -0.001254080
     22        8          -0.000432073    0.000494079   -0.000217627
     23        8           0.012883515    0.022304464    0.032622338
     24        8          -0.011336924   -0.037132929   -0.028799536
 -------------------------------------------------------------------
 Cartesian Forces:  Max     0.044830651 RMS     0.011659753
 Leave Link  716 at Thu Feb  4 18:07:38 2021, MaxMem=    33554432 cpu:         0.0
 (Enter /apps/applications/gaussian/G09.D01/2/default/g09/l103.exe)

 GradGradGradGradGradGradGradGradGradGradGradGradGradGradGradGradGradGrad
 Berny optimization.
 Search for a saddle point.
 Step number   1 out of a maximum of  100
 All quantities printed in internal units (Hartrees-Bohrs-Radians)
 Swapping is turned off.
 Second derivative matrix not updated -- analytic derivatives used.
 ITU=  0
     Eigenvalues ---   -0.12196  -0.00232  -0.00091  -0.00044   0.00000
     Eigenvalues ---    0.00021   0.00044   0.00120   0.00309   0.00516
     Eigenvalues ---    0.00547   0.00595   0.00732   0.01389   0.01518
     Eigenvalues ---    0.01685   0.02298   0.02411   0.03202   0.03833
     Eigenvalues ---    0.04374   0.04533   0.04611   0.04747   0.05013
     Eigenvalues ---    0.05341   0.05586   0.05977   0.06189   0.06693
     Eigenvalues ---    0.07599   0.07975   0.08200   0.08386   0.08955
     Eigenvalues ---    0.11571   0.11823   0.13391   0.13593   0.14621
     Eigenvalues ---    0.17260   0.20038   0.20407   0.24143   0.25313
     Eigenvalues ---    0.27797   0.32512   0.38156   0.45589   0.48738
     Eigenvalues ---    0.49251   0.55610   0.56459   0.57357   0.58670
     Eigenvalues ---    0.60063   0.60187   0.62854   0.64193   0.66111
     Eigenvalues ---    0.68091   0.68627   0.73248   0.86664   1.66428
     Eigenvalues ---    2.46192
 Eigenvectors required to have negative eigenvalues:
                          Y13       Z13       Z24       Y3        Z3
   1                    0.62648  -0.44017   0.32482  -0.30810   0.25184
                          Z12       Y23       X3        Z2        Y24
   1                   -0.24428  -0.14020  -0.11749  -0.10787  -0.08049
 Eigenvalue     2 is  -2.32D-03 should be greater than     0.000000 Eigenvector:
                          Z13       Z23       Z1        Z24       Y12
   1                    0.39067   0.30589  -0.27510   0.27459  -0.26535
                          Z18       Z12       Y13       Y24       Z20
   1                   -0.21972   0.21920   0.21195   0.19707  -0.18679
 Eigenvalue     3 is  -9.10D-04 should be greater than     0.000000 Eigenvector:
                          X23       X24       X19       X13       Y14
   1                    0.33246   0.33172  -0.31303   0.30109   0.27571
                          Z15       Y15       X1        X10       Y1
   1                   -0.25953   0.19076  -0.16803  -0.15822  -0.15613
 Eigenvalue     4 is  -4.37D-04 should be greater than     0.000000 Eigenvector:
                          X19       Z20       Y20       X18       Y18
   1                    0.57043  -0.42989  -0.42168  -0.26445   0.22848
                          Z18       X20       X9        Y14       Y9
   1                    0.19010  -0.13232  -0.11214   0.10794   0.09647
 RFO step:  Lambda0=1.688021156D-02 Lambda=-2.40384169D-02.
 Linear search not attempted -- option 19 set.
 Maximum step size (   0.300) exceeded in Quadratic search.
    -- Step size scaled by   0.271
 TrRot= -0.003138  0.001403 -0.006745  0.841561  0.001982 -0.841454
 Variable       Old X    -DE/DX   Delta X   Delta X   Delta X     New X
                                 (Linear)    (Quad)   (Total)
    X1       -3.21447   0.00583   0.00000  -0.00026   0.00112  -3.21335
    Y1       -0.26223  -0.00719   0.00000   0.03182   0.03791  -0.22431
    Z1        3.36059  -0.00048   0.00000   0.04059   0.03842   3.39901
    X2       -4.57433  -0.00720   0.00000  -0.01538  -0.01436  -4.58869
    Y2        1.42605   0.00554   0.00000   0.02890   0.03463   1.46069
    Z2        3.19417   0.00072   0.00000   0.06765   0.06481   3.25898
    X3       -6.04688  -0.02000   0.00000  -0.00062  -0.00032  -6.04720
    Y3        3.46703  -0.02232   0.00000   0.05797   0.06300   3.53003
    Z3        2.86339   0.03334   0.00000   0.02275   0.01878   2.88217
    X4       -8.73250   0.00253   0.00000   0.00819   0.00718  -8.72532
    Y4        3.20211   0.00126   0.00000   0.00379   0.00703   3.20914
    Z4        1.85451  -0.00193   0.00000   0.01233   0.01237   1.86689
    X5      -10.72993   0.00074   0.00000  -0.01051  -0.00921 -10.73914
    Y5        4.21740  -0.00076   0.00000  -0.01477  -0.00904   4.20836
    Z5        3.69882  -0.00016   0.00000   0.00001   0.00124   3.70006
    X6      -12.03137   0.00006   0.00000  -0.00431  -0.00459 -12.03596
    Y6        6.59990  -0.00091   0.00000  -0.00887  -0.00476   6.59513
    Z6        2.68742   0.00015   0.00000   0.00754   0.00694   2.69436
    X7      -13.81014  -0.00016   0.00000  -0.00919  -0.00813 -13.81827
    Y7        7.01866  -0.00048   0.00000  -0.01624  -0.01078   7.00788
    Z7        3.73590   0.00187   0.00000   0.00296   0.00411   3.74001
    X8      -10.29387  -0.00315   0.00000  -0.00143  -0.00176 -10.29563
    Y8        8.94786  -0.00242   0.00000  -0.01450  -0.00999   8.93786
    Z8        2.81842   0.00028   0.00000   0.03040   0.02405   2.84247
    X9       -9.01709   0.00220   0.00000  -0.00105   0.00106  -9.01603
    Y9        9.24718   0.00075   0.00000  -0.02607  -0.01865   9.22853
    Z9        4.68953  -0.00038   0.00000   0.03241   0.02394   4.71347
   X10      -10.44314   0.00227   0.00000   0.02038   0.01700 -10.42615
   Y10       10.71179  -0.00023   0.00000  -0.00313  -0.00183  10.70996
   Z10        0.64294  -0.00091   0.00000   0.03611   0.02731   0.67025
   X11      -14.65581   0.00024   0.00000   0.01860   0.01390 -14.64191
   Y11        3.47000   0.00011   0.00000   0.02254   0.02105   3.49105
   Z11       -0.87086  -0.00018   0.00000  -0.03506  -0.02763  -0.89848
   X12       -5.83743   0.00042   0.00000  -0.02215  -0.02026  -5.85770
   Y12        5.12410  -0.00314   0.00000   0.02452   0.03154   5.15564
   Z12        4.16978   0.00024   0.00000   0.05276   0.04613   4.21592
   X13       -4.90847   0.01456   0.00000   0.01181   0.00972  -4.89875
   Y13        5.10148   0.04483   0.00000  -0.08621  -0.08355   5.01793
   Z13        1.28875  -0.03542   0.00000  -0.08397  -0.09166   1.19709
   X14       -8.82105  -0.00041   0.00000  -0.01509  -0.01864  -8.83969
   Y14        4.30562  -0.00165   0.00000  -0.02587  -0.02535   4.28026
   Z14        0.03865  -0.00075   0.00000  -0.00249  -0.00388   0.03476
   X15       -9.17051   0.00130   0.00000   0.03852   0.03703  -9.13348
   Y15        1.23506  -0.00013   0.00000  -0.00990  -0.00748   1.22758
   Z15        1.31116   0.00105   0.00000   0.03116   0.03466   1.34582
   X16      -12.17504  -0.00061   0.00000  -0.01194  -0.01002 -12.18506
   Y16        2.75392  -0.00079   0.00000  -0.01983  -0.01374   2.74018
   Z16        4.06750  -0.00054   0.00000  -0.02234  -0.01704   4.05047
   X17       -9.90358   0.00078   0.00000  -0.02217  -0.01842  -9.92201
   Y17        4.65308  -0.00011   0.00000  -0.02762  -0.01902   4.63406
   Z17        5.57628   0.00050   0.00000   0.00985   0.00937   5.58565
   X18       -8.97357   0.00000   0.00000  -0.01119  -0.01458  -8.98815
   Y18       12.18010   0.00070   0.00000   0.02553   0.02715  12.20725
   Z18        0.71977   0.00060   0.00000   0.07931   0.06640   0.78617
   X19      -10.18392   0.00014   0.00000   0.07549   0.06981 -10.11411
   Y19        9.71204  -0.00054   0.00000   0.00930   0.00793   9.71997
   Z19       -1.17628  -0.00021   0.00000   0.03716   0.02940  -1.14688
   X20      -12.29571  -0.00047   0.00000   0.00504   0.00135 -12.29435
   Y20       11.64134   0.00051   0.00000  -0.03518  -0.03432  11.60702
   Z20        0.52905  -0.00015   0.00000  -0.00329  -0.01096   0.51809
   X21      -12.68919  -0.00017   0.00000   0.01441   0.01067 -12.67852
   Y21        6.26713   0.00131   0.00000   0.01510   0.01522   6.28235
   Z21        0.04397  -0.00125   0.00000  -0.00117  -0.00046   0.04351
   X22      -15.09872  -0.00043   0.00000   0.01290   0.00924 -15.08948
   Y22        5.06962   0.00049   0.00000   0.01987   0.01969   5.08930
   Z22        0.04439  -0.00022   0.00000  -0.03208  -0.02642   0.01797
   X23       -5.62380   0.01288   0.00000  -0.02335  -0.03025  -5.65405
   Y23        6.02807   0.02230   0.00000   0.03152   0.02884   6.05691
   Z23       -2.26595   0.03262   0.00000  -0.08663  -0.09487  -2.36082
   X24       -4.87081  -0.01134   0.00000  -0.02320  -0.02754  -4.89835
   Y24        7.02446  -0.03713   0.00000  -0.05584  -0.05547   6.96899
   Z24       -0.21902  -0.02880   0.00000  -0.12443  -0.13501  -0.35403
         Item               Value     Threshold  Converged?
 Maximum Force            0.044831     0.000450     NO 
 RMS     Force            0.011660     0.000300     NO 
 Maximum Displacement     0.135010     0.001800     NO 
 RMS     Displacement     0.035039     0.001200     NO 
 Predicted change in Energy=-2.499350D-03
 Lowest energy point so far.  Saving SCF results.
 GradGradGradGradGradGradGradGradGradGradGradGradGradGradGradGradGradGrad

 Leave Link  103 at Thu Feb  4 18:07:38 2021, MaxMem=    33554432 cpu:         0.0
 (Enter /apps/applications/gaussian/G09.D01/2/default/g09/l202.exe)
                          Input orientation:                          
 ---------------------------------------------------------------------
 Center     Atomic      Atomic             Coordinates (Angstroms)
 Number     Number       Type             X           Y           Z
 ---------------------------------------------------------------------
      1          8           0       -1.700432   -0.118701    1.798678
      2          6           0       -2.428231    0.772963    1.724579
      3          6           0       -3.200041    1.868012    1.525177
      4          6           0       -4.617240    1.698203    0.987913
      5          6           0       -5.682910    2.226968    1.957985
      6          6           0       -6.369154    3.489993    1.425795
      7          1           0       -7.312314    3.708411    1.979126
      8          6           0       -5.448212    4.729714    1.504168
      9          8           0       -4.771079    4.883527    2.494262
     10          6           0       -5.517280    5.667466    0.354679
     11          1           0       -7.748165    1.847386   -0.475457
     12          1           0       -3.099759    2.728247    2.230967
     13          1           0       -2.592306    2.655375    0.633475
     14          1           0       -4.677761    2.265017    0.018397
     15          1           0       -4.833231    0.649606    0.712175
     16          1           0       -6.448057    1.450039    2.143415
     17          1           0       -5.250499    2.452239    2.955796
     18          1           0       -4.756323    6.459800    0.416023
     19          1           0       -5.352155    5.143589   -0.606902
     20          1           0       -6.505891    6.142170    0.274161
     21          8           0       -6.709184    3.324476    0.023026
     22          8           0       -7.985009    2.693144    0.009510
     23          8           0       -2.991993    3.205177   -1.249291
     24          8           0       -2.592095    3.687828   -0.187344
 ---------------------------------------------------------------------
                    Distance matrix (angstroms):
                    1          2          3          4          5
     1  O    0.000000
     2  C    1.153363   0.000000
     3  C    2.504129   1.354469   0.000000
     4  C    3.530758   2.488073   1.525103   0.000000
     5  C    4.624681   3.572331   2.545744   1.535020   0.000000
     6  C    5.912587   4.796083   3.561458   2.543906   1.532773
     7  H    6.795040   5.704027   4.528126   3.505262   2.202290
     8  C    6.135122   4.982445   3.639238   3.185450   2.554363
     9  O    5.910584   4.793547   3.535621   3.526903   2.859429
    10  C    7.080480   5.947690   4.601686   4.118993   3.799349
    11  H    6.753686   5.856300   4.968742   3.459249   3.214188
    12  H    3.201578   2.128501   1.117228   2.215608   2.645462
    13  H    3.138254   2.181950   1.335820   2.267633   3.389645
    14  H    4.209039   3.193380   2.147477   1.124679   2.184898
    15  H    3.403706   2.612318   2.193809   1.105550   2.182216
    16  H    5.011959   4.097909   3.332646   2.179143   1.106098
    17  H    4.533391   3.507288   2.567561   2.200489   1.110564
    18  H    7.384233   6.282711   4.973606   4.797834   4.599248
    19  H    6.842046   5.752174   4.461699   3.867068   3.898041
    20  H    8.038352   6.896334   5.546361   4.881116   4.340665
    21  O    6.332140   5.266124   4.085563   2.819929   2.449863
    22  O    7.113614   6.124243   5.086651   3.645415   3.051809
    23  O    4.691100   3.882963   3.086903   3.149203   4.299366
    24  O    4.385090   3.489805   2.571781   3.072628   4.036048
                    6          7          8          9         10
     6  C    0.000000
     7  H    1.115093   0.000000
     8  C    1.546345   2.177962   0.000000
     9  O    2.374322   2.846776   1.209320   0.000000
    10  C    2.571841   3.114301   1.485084   2.397747   0.000000
    11  H    2.866111   3.111006   4.185274   5.186562   4.500999
    12  H    3.452174   4.332409   3.170069   2.740049   4.243097
    13  H    3.948284   5.019775   3.635546   3.629635   4.207837
    14  H    2.518362   3.587299   2.979235   3.604887   3.520587
    15  H    3.306980   4.136098   4.201516   4.594104   5.076874
    16  H    2.163936   2.423670   3.487777   3.837211   4.674677
    17  H    2.160840   2.604406   2.707989   2.520718   4.144233
    18  H    3.527126   4.067742   2.157769   2.608435   1.100278
    19  H    2.810787   3.548169   2.153401   3.165833   1.107407
    20  H    2.894650   3.079027   2.150962   3.085872   1.099627
    21  O    1.452851   2.082666   2.399693   3.506265   2.649572
    22  O    2.291685   2.315745   3.580078   4.615314   3.880132
    23  O    4.317687   5.416742   3.992338   4.471711   3.874617
    24  O    4.111877   5.193696   3.479101   3.656320   3.573438
                   11         12         13         14         15
    11  H    0.000000
    12  H    5.450535   0.000000
    13  H    5.335304   1.677737   0.000000
    14  H    3.137784   2.756835   2.209032   0.000000
    15  H    3.367787   3.103611   3.008496   1.764952   0.000000
    16  H    2.950704   3.585050   4.312722   2.883373   2.301479
    17  H    4.286920   2.286316   3.535595   2.998566   2.908167
    18  H    5.569581   4.467965   4.382227   4.214319   5.818246
    19  H    4.077144   4.354384   3.917462   3.021917   4.712232
    20  H    4.533249   5.204392   5.253856   4.294158   5.758291
    21  O    1.873436   4.272989   4.215332   2.291103   3.339020
    22  O    1.003292   5.366729   5.428813   3.334856   3.821452
    23  O    5.006355   3.514437   2.001709   2.309274   3.710587
    24  O    5.482271   2.650800   1.318978   2.533125   3.881059
                   16         17         18         19         20
    16  H    0.000000
[...]
 0156123,0.00055514,-0.00053608,0.00029112,0.00004056,0.00019820,0.0003
 1292,0.00031239,-0.00028506,0.00008285,0.00025730,-0.00013370,0.000018
 43,0.00006382,0.00006838,-0.00008771,0.00002463,-0.00016448,-0.0004232
 6,-0.00011973,0.00069980,-0.00070811,0.00016836,0.00035997,0.13883067,
 0.00053962,-0.00041296,0.00005998,-0.00051317,0.00037341,0.00001754,0.
 00087398,0.00057049,-0.00036503,-0.00719881,0.00146172,0.00198754,-0.0
 8579214,-0.12978437,-0.02038324,-0.00725700,-0.03946052,-0.00099144,0.
 00036512,-0.00074702,-0.00038422,0.00128803,-0.00233581,0.00034492,0.0
 0003566,0.00045681,0.00012760,-0.00024953,0.00016303,0.00008678,0.0001
 4675,0.00029563,0.00009650,-0.00010005,-0.00010171,0.00002854,-0.00015
 726,-0.00033454,0.00053313,-0.00006038,-0.00007383,0.00022650,0.000887
 03,0.00087056,-0.00020924,0.10267745,0.17023476,-0.00031179,0.00008084
 ,0.00010447,-0.00002023,0.00054224,-0.00050236,0.00116498,-0.00121529,
 0.00036086,0.01497800,0.00805564,0.00158853,-0.01963493,-0.02293900,-0
 .03762371,0.00232446,0.00606706,0.00450061,0.00003884,-0.00036941,0.00
 017480,-0.00065492,0.00053791,0.00024379,0.00001933,-0.00011025,-0.000
 15548,0.00000037,-0.00011012,-0.00014961,-0.00013754,0.00003436,-0.000
 03356,-0.00004088,-0.00001177,-0.00009269,0.00048095,0.00081614,-0.001
 33125,0.00066000,0.00009433,-0.00045499,0.00063973,0.00006957,0.000549
 57,0.01624732,0.02378493,0.04142455,-0.00049827,0.00010669,0.00014056,
 -0.00048372,0.00140026,-0.00078361,-0.00141467,-0.00290485,0.00296691,
 -0.00069528,0.00128940,0.02355586,-0.04233915,0.00189514,-0.04238443,-
 0.00434092,0.00892741,-0.01342558,-0.00047878,0.00067832,-0.00059005,0
 .00098024,0.00031572,0.00051866,-0.00060512,0.00019996,-0.00040491,-0.
 00027161,-0.00010159,0.00009766,0.00005040,0.00014504,-0.00007745,-0.0
 0080755,-0.00034457,0.00021445,0.00085926,0.00157435,-0.00253789,-0.00
 172979,0.00059227,0.00120076,-0.00035488,0.00004348,0.00053423,-0.0048
 1323,-0.00500111,-0.01552268,0.05809711,0.00075891,-0.00041262,0.00002
 959,-0.00042393,-0.00008596,0.00037003,0.00004025,0.00118835,-0.001209
 11,0.00027458,0.00344567,-0.00334739,0.00041842,-0.03200529,0.00419704
 ,0.01287546,-0.01003304,0.02497145,0.00062435,0.00007430,0.00041531,0.
 00095952,-0.00151067,0.00185763,-0.00038282,0.00076358,-0.00095972,-0.
 00004356,0.00022716,-0.00056859,0.00001582,-0.00022490,0.00001181,-0.0
 0068039,-0.00001579,0.00032920,-0.00051626,-0.00090852,0.00161503,0.00
 025844,0.00012030,0.00003360,0.00012519,0.00001908,-0.00017429,-0.0076
 1600,-0.00046136,-0.01510093,-0.00865443,0.04189967,-0.00087939,0.0005
 9622,-0.00005795,0.00042477,0.00010378,-0.00032623,0.00072821,-0.00133
 818,0.00066786,0.01087232,-0.00251196,-0.02758895,-0.04030770,0.006067
 57,-0.19922951,-0.01056701,0.01232140,-0.01301438,-0.00034304,0.000052
 94,0.00069784,0.00149414,0.00154694,0.00082108,-0.00062344,-0.00016256
 ,-0.00114982,-0.00040216,-0.00036142,0.00005911,-0.00013270,-0.0000868
 4,-0.00006322,0.00037309,0.00036995,0.00021274,0.00049629,0.00105412,-
 0.00176946,0.00119440,-0.00019660,-0.00107812,0.00039617,-0.00036290,-
 0.00057582,-0.00793769,-0.00542171,-0.00892437,0.04535786,-0.01181591,
 0.25024747,0.00059023,-0.00025356,-0.00005913,-0.00007267,-0.00063438,
 0.00067299,-0.00014258,0.00148899,-0.00150965,0.00003131,0.00005920,0.
 00004763,-0.00007668,-0.00003548,-0.00005119,0.00022294,-0.00050937,-0
 .00052309,0.00006187,0.00001126,0.00001387,0.00493329,-0.00641528,0.00
 710376,-0.00200864,-0.00031730,-0.00154177,-0.06166891,-0.06223658,-0.
 01387565,-0.00003350,-0.00003573,-0.00000783,0.00010095,-0.00009973,0.
 00003644,-0.00054992,-0.00089057,0.00177725,0.00002599,-0.00001481,0.0
 0003127,0.00000347,-0.00002420,0.00002003,-0.00000217,-0.00002265,0.00
 001620,0.00003689,-0.00002834,0.00002387,0.06439570,-0.00069409,0.0003
 6265,0.00000184,0.00039702,0.00023520,-0.00042123,-0.00017692,-0.00096
 626,0.00123794,-0.00001133,0.00013998,-0.00005798,0.00016675,0.0001376
 6,0.00001954,-0.00070308,-0.00037865,0.00049061,-0.00016678,-0.0000614
 2,0.00008341,-0.00822652,-0.02858668,0.01562514,-0.00102429,0.00017818
 ,-0.00252334,-0.06249074,-0.18688550,-0.02749214,-0.00011972,-0.000040
 05,-0.00005960,0.00017230,-0.00010767,-0.00009260,0.00049429,0.0007899
 0,-0.00142832,0.00002454,-0.00012404,-0.00002078,-0.00000360,-0.000026
 09,-0.00003412,-0.00005185,-0.00002337,0.00000235,-0.00003633,-0.00004
 912,0.00003992,0.07928355,0.23042896,-0.00041744,0.00018221,0.00004635
 ,0.00003534,0.00050720,-0.00050666,-0.00001454,-0.00136449,0.00110160,
 0.00002195,-0.00002998,-0.00001731,0.00018258,0.00014462,-0.00001990,0
 .00076798,0.00147718,-0.00247498,0.00013093,0.00036222,0.00008562,0.00
 864622,0.02734263,-0.00028806,-0.00002003,-0.00156567,-0.00027615,-0.0
 1423603,-0.03048122,-0.04041842,-0.00002169,-0.00001783,0.00002863,-0.
 00001918,0.00030735,-0.00003969,0.00039361,0.00084786,-0.00139143,0.00
 001173,0.00003420,-0.00001522,-0.00000268,0.00000768,-0.00000975,-0.00
 003374,0.00002473,0.00000082,0.00000515,0.00000456,0.00003797,0.013556
 88,0.02650378,0.04655222,0.00253635,-0.00109740,-0.00022806,-0.0004441
 0,-0.00264032,0.00277587,-0.00019468,0.00657934,-0.00642452,0.00006007
 ,0.00013934,0.00015760,-0.00017661,0.00008105,-0.00032080,-0.00002388,
 -0.00041612,-0.00004188,-0.00001193,0.00000419,0.00011659,0.00287213,-
 0.00221142,0.01440218,-0.00268196,0.00036324,-0.00244164,-0.08849475,0
 .04439805,0.07097557,-0.00024071,-0.00009562,0.00000848,0.00008608,-0.
 00065980,0.00034351,-0.00231260,-0.00435827,0.00756397,0.00016726,-0.0
 0008406,0.00017395,0.00002541,-0.00008128,0.00010081,-0.00001592,-0.00
 002460,0.00007439,0.00011622,-0.00005440,0.00009962,0.00604482,-0.0008
 0500,-0.00177407,0.10248484,-0.00176629,0.00081730,0.00014592,0.000431
 09,0.00158264,-0.00177060,-0.00004975,-0.00446344,0.00403449,-0.000085
 56,0.00024293,-0.00030292,-0.00033145,-0.00027387,-0.00003390,0.001208
 64,-0.00183895,0.00053924,0.00014585,0.00016687,-0.00002536,-0.0071899
 2,0.01069617,0.00658879,0.00190028,-0.00204322,0.00196923,0.04237506,-
 0.06585328,-0.05215076,-0.00010602,-0.00005670,-0.00001903,-0.00002081
 ,0.00063670,-0.00013167,0.00157797,0.00323233,-0.00495617,0.00012307,-
 0.00064419,0.00016817,-0.00000837,-0.00003044,-0.00005112,0.00001834,-
 0.00008462,0.00004575,-0.00005892,0.00005897,-0.00000160,0.00853418,-0
 .01491967,-0.01613547,-0.05343008,0.07329722,-0.00148622,0.00058460,0.
 00019629,-0.00003697,0.00211231,-0.00201338,0.00010234,-0.00522525,0.0
 0458521,0.00004316,-0.00024267,-0.00024669,-0.00004658,-0.00000308,0.0
 0000558,-0.00062600,0.00122451,0.00138734,-0.00009117,-0.00037738,-0.0
 0015696,0.01765283,0.00116799,-0.03810172,-0.00098687,0.00108680,0.001
 62184,0.07239026,-0.05594248,-0.11758716,0.00004080,0.00004187,0.00017
 414,-0.00010337,0.00086533,-0.00042304,0.00145690,0.00356074,-0.005660
 71,0.00002888,0.00031266,0.00014313,0.00000278,0.00006909,-0.00000250,
 0.00003632,0.00005598,-0.00002413,-0.00007545,0.00012205,-0.00007098,0
 .00343797,-0.01017906,-0.00361269,-0.09134503,0.06197899,0.15175825,0.
 00083958,-0.00040793,-0.00003662,-0.00031046,-0.00056268,0.00071649,0.
 00006013,0.00161003,-0.00187141,0.00004809,-0.00007495,0.00006121,-0.0
 0054946,-0.00023984,-0.00036619,0.00039737,-0.00022443,0.00188486,0.00
 005354,-0.00040394,-0.00002265,-0.00142203,0.00845373,-0.01521671,0.00
 020475,-0.00051233,0.00250252,-0.18318357,0.01477790,-0.06811067,-0.00
 010388,0.00013481,-0.00022572,-0.00011241,0.00002358,0.00014657,-0.000
 67561,-0.00119916,0.00215692,0.00001831,0.00012466,0.00003820,0.000013
 66,0.00000532,0.00005460,0.00009318,-0.00004287,0.00005087,0.00003473,
 0.00011420,0.00000737,-0.01200481,-0.00634879,-0.00659946,-0.02024630,
 0.00676216,0.00081121,0.21716577,-0.00036053,0.00020229,0.00001195,0.0
 0019180,0.00012454,-0.00024030,-0.00012726,-0.00070842,0.00058075,0.00
 002742,0.00014802,-0.00009443,-0.00004521,0.00015821,-0.00023009,-0.00
 033154,-0.00135539,0.00197190,-0.00010946,-0.00009661,0.00018864,0.015
 98264,-0.00041186,0.01147317,-0.00096275,-0.00089926,0.00251508,0.0160
 9790,-0.03808804,0.00927198,-0.00042499,0.00000341,-0.00019878,0.00003
 295,0.00013706,-0.00001558,0.00024999,0.00050985,-0.00078217,0.0001180
 4,-0.00013085,0.00007250,0.00000368,-0.00003739,-0.00000310,-0.0000451
 8,-0.00002847,0.00004220,-0.00000680,0.00004367,0.00009011,-0.01830034
 ,-0.00023083,-0.00733738,0.01160736,0.00155350,0.00041056,-0.02242306,
 0.04142148,-0.00030295,0.00009567,0.00006300,-0.00011763,0.00061809,-0
 .00053126,0.00012290,-0.00138748,0.00107023,-0.00003514,-0.00005872,-0
 .00012253,-0.00041603,-0.00034879,-0.00012741,0.00125464,0.00048428,-0
 .00001478,0.00004823,0.00017186,-0.00018876,-0.02393711,0.01428059,-0.
 02206221,0.00130904,0.00052913,-0.00235195,-0.06688909,0.00714024,-0.0
 6029114,-0.00005632,-0.00010433,0.00027076,-0.00011045,0.00030426,-0.0
 0002822,0.00036982,0.00085407,-0.00138601,0.00004709,0.00000457,0.0001
 0727,0.00000998,0.00002938,0.00002004,0.00009305,-0.00003396,0.0000448
 5,-0.00003396,0.00007316,-0.00005023,-0.00824139,-0.00289700,0.0005473
 4,0.01073343,-0.00227281,0.00565188,0.08576389,-0.01816786,0.08006970,
 -0.00017783,0.00005742,-0.00000992,0.00005971,0.00016723,-0.00012607,0
 .00005796,-0.00010873,0.00068963,-0.00113767,0.00019672,-0.00035862,-0
 .01543342,0.01716385,-0.02403630,-0.05864928,-0.00870830,-0.04506027,0
 .00747159,0.00145078,0.00778791,-0.01582356,-0.01488761,-0.02372754,-0
 .00346697,-0.00335882,-0.00045980,-0.00123795,-0.00147353,0.00095487,-
 0.05149396,0.01091357,-0.00568768,0.00016132,-0.00027190,-0.00015101,0
 .00015628,0.00023637,-0.00054118,-0.00040136,-0.00001747,0.00030145,0.
 00007589,0.00007095,-0.00010204,-0.00012042,0.00011380,-0.00036354,-0.
 00094888,0.00137393,-0.00043657,0.00003209,0.00029248,-0.00047841,0.00
 024370,-0.00008339,-0.00010239,0.00017844,-0.00021445,0.00004558,0.308
 36921,-0.00029291,0.00016544,-0.00002802,0.00024176,-0.00002931,-0.000
 09608,-0.00004539,-0.00002138,0.00052251,0.00070991,-0.00000809,0.0004
 7156,0.01589172,-0.00400191,0.02053262,0.00573733,-0.04830806,-0.05364
 899,-0.00354501,0.00142454,-0.01164704,-0.01258228,-0.00573135,-0.0182
 7810,-0.00394890,-0.00253681,-0.00111776,-0.00327287,-0.00327818,0.000
 51806,-0.00507721,0.02117855,0.00048296,0.00017921,-0.00029293,-0.0001
 1235,0.00016490,0.00017813,-0.00044587,-0.00013959,0.00008113,-0.00034
 134,-0.00010794,-0.00004028,-0.00000453,-0.00060789,-0.00078375,0.0002
 7452,0.00066974,-0.00246379,0.00059264,-0.00005991,0.00034085,-0.00045
 704,0.00045291,-0.00006388,-0.00027152,-0.00049027,-0.00128403,0.00045
 404,-0.12395134,0.18198563,-0.00011320,0.00003673,-0.00003391,0.000098
 21,-0.00000529,0.00000439,0.00011452,0.00049872,0.00043091,-0.00084350
 ,-0.00014676,0.00007658,-0.01669440,0.02202857,-0.01035299,-0.03666722
 ,-0.06409760,-0.21036778,-0.00869148,-0.00824063,-0.04616187,-0.017034
 94,-0.01231099,-0.01534553,-0.00255368,-0.00246215,0.00097000,0.001009
 04,0.00003807,0.00300508,-0.02109747,0.01457698,-0.00232654,0.00029871
 ,-0.00051624,-0.00016569,0.00008299,-0.00004119,-0.00013950,-0.0004233
 2,-0.00003557,-0.00009990,0.00001759,0.00004329,-0.00007407,0.00011906
 ,0.00129644,-0.00044298,0.00019271,-0.00114508,-0.00001062,0.00018447,
 0.00024529,-0.00012928,-0.00014327,-0.00034584,-0.00060468,-0.00054237
 ,-0.00024428,-0.00056121,0.08885200,0.09479851,0.31667526,-0.00066053,
 0.00046236,-0.00004254,0.00066751,-0.00036207,-0.00009566,-0.00047276,
 -0.00034841,0.00048593,0.00011555,0.00055721,-0.00010470,-0.00075877,-
 0.00170839,-0.00216683,-0.03595089,0.01466962,-0.03513942,-0.00064109,
 -0.00046861,-0.00034477,0.00071260,0.00227681,0.00037953,-0.00090561,-
 0.00078574,-0.00098484,-0.00211147,-0.00213756,-0.00019274,-0.09615577
 ,-0.08634348,-0.06520703,0.00018300,-0.00004587,-0.00003058,0.00026519
 ,0.00039680,-0.00067243,0.00031252,-0.00023521,-0.00003772,-0.00001857
 ,-0.00016763,-0.00002988,-0.00025466,-0.00055110,0.00012703,-0.0001941
 8,0.00045703,0.00030914,-0.00000143,0.00026437,0.00001892,0.00028160,0
 .00024437,-0.00017067,-0.00078954,-0.00079519,0.00049596,-0.16786367,0
 .13010761,0.01380953,0.30440945,-0.00031717,0.00013342,0.00002872,0.00
 004351,0.00032213,-0.00032858,0.00009641,-0.00064995,0.00089726,-0.000
 16316,0.00012305,-0.00014203,0.00066772,0.00088080,0.00061334,0.000993
 90,0.00098838,0.02305249,0.00025212,0.00064846,0.00172315,-0.00167923,
 -0.00026124,-0.00168365,-0.00047264,-0.00054372,-0.00036971,-0.0016273
 0,0.00033775,-0.00056511,-0.06464700,-0.13806531,-0.06556938,0.0000649
 9,-0.00007483,-0.00009908,0.00029301,0.00051676,-0.00095895,0.00005725
 ,-0.00022471,0.00007256,-0.00003624,0.00000955,-0.00004978,-0.00011482
 ,0.00007852,-0.00016911,0.00004107,-0.00006947,-0.00008333,0.00014558,
 0.00007228,-0.00004744,0.00019109,-0.00004953,-0.00009424,0.00051442,-
 0.00079175,0.00062042,0.12110672,-0.13648676,-0.04404573,-0.05531260,0
 .27330645,0.00033609,-0.00006330,-0.00008264,0.00023868,-0.00087492,0.
 00068759,-0.00031342,0.00155445,-0.00140094,0.00040190,0.00004625,0.00
 020704,-0.00381218,0.00013597,-0.00673185,-0.03719640,0.02535041,0.000
 21158,0.00220126,0.00011921,-0.00080454,-0.00005020,0.00061279,-0.0006
 8299,-0.00025422,-0.00043148,-0.00004682,-0.00022752,-0.00019929,0.001
 42449,-0.05229455,-0.08039650,-0.04352913,0.00008488,-0.00013939,0.000
 07605,-0.00049859,-0.00102560,0.00174126,-0.00009795,0.00005943,-0.000
 23621,-0.00002545,-0.00006810,-0.00006985,-0.00001832,-0.00061138,-0.0
 0007875,-0.00047555,0.00118410,0.00015086,0.00002759,0.00002448,-0.000
 06823,-0.00025010,-0.00011536,-0.00027325,0.00017109,0.00018162,-0.000
 92659,0.00271220,-0.03247703,-0.03441956,0.08916043,0.08663045,0.08587
 959,-0.04944770,0.02078848,0.00483040,0.00347313,0.06069655,-0.0603853
 8,-0.01079758,-0.15743724,0.15688660,0.00335848,-0.00381015,0.00292414
 ,0.00271907,-0.00014524,0.00478926,-0.00108188,-0.00110158,0.00055677,
 -0.00001002,-0.00003412,-0.00036262,0.00099527,0.00707597,-0.01604047,
 0.00395144,-0.00375240,0.00796724,-0.01068449,0.00199325,0.01445346,0.
 00048344,0.00029185,-0.00055547,0.00327685,0.01416813,-0.01489078,0.05
 905790,0.13201532,-0.22997787,0.00295980,0.00746485,-0.00930467,-0.000
 00114,0.00223743,-0.00229856,-0.00016442,0.00023596,-0.00109934,-0.002
 06729,0.00100900,-0.00121876,0.00150914,-0.00120039,-0.00126620,0.0066
 0252,-0.00424455,-0.00538830,0.00184438,-0.00069481,-0.00125251,-0.000
 42391,-0.00024251,0.00006470,-0.00042160,-0.00079812,0.00152746,0.2049
 8548,-0.00261494,0.00106353,0.00022163,-0.00032105,0.00391165,-0.00368
 212,-0.00189205,-0.01035237,0.01159033,0.00080625,-0.00097286,0.002884
 13,0.00025058,0.00011559,0.00030523,-0.00011960,0.00004350,-0.00010765
 ,0.00000671,0.00001501,-0.00001107,-0.00020061,-0.00056439,0.00005697,
 0.00018485,0.00013161,0.00009064,0.00144909,-0.00056061,-0.00124559,0.
 00002916,0.00000089,-0.00003154,0.00022280,0.00038283,-0.00098803,0.01
 774540,0.00954151,-0.00649411,0.00051663,0.00047333,-0.00226574,0.0000
 6120,0.00031376,-0.00030363,0.00002737,0.00002624,-0.00009776,-0.00013
 501,0.00005461,-0.00010166,-0.00005791,0.00006167,0.00002945,0.0001276
 3,-0.00038339,0.00018150,-0.00011960,-0.00002328,-0.00003348,0.0000663
 0,0.00006878,0.00010052,-0.00003570,0.00002158,0.00006018,-0.01071434,
 0.01094984,-0.03160013,0.01358936,0.00306476,0.00369666,0.03635226,-0.
 03754615,-0.00518903,-0.09371421,0.09325248,0.00092330,-0.00034043,-0.
 00236837,0.00170486,-0.00013203,0.00305992,-0.00062289,-0.00085061,0.0
 0013071,-0.00005094,0.00001252,-0.00014782,0.00066209,0.00456015,-0.00
 900785,0.00220767,-0.00252861,0.00448883,-0.00474788,-0.00061199,0.007
 24595,0.00019902,0.00010567,-0.00041064,0.00215681,0.00896268,-0.00891
 368,0.00569460,0.07882563,-0.15942998,0.00215340,0.00296305,-0.0040931
 6,-0.00005311,0.00109142,-0.00145228,-0.00020512,0.00008334,-0.0006400
 0,-0.00129059,0.00056359,-0.00067069,0.00096276,-0.00048620,-0.0007458
 8,0.00459038,-0.00283979,-0.00339560,0.00093776,-0.00028117,-0.0007974
 7,-0.00022658,-0.00008354,0.00007597,-0.00003976,-0.00045630,0.0009999
 6,0.18136019,-0.02538101,0.20417571,0.04591861,-0.01935940,-0.00479928
 ,-0.00489296,-0.05390588,0.05523215,0.00575552,0.13599916,-0.13403643,
 -0.00311512,0.00161655,0.00049276,-0.00231594,0.00009911,-0.00438145,0
 .00094123,0.00106862,-0.00051154,0.00003534,0.00002637,0.00029812,-0.0
 0128386,-0.00629217,0.01390262,-0.00332272,0.00344744,-0.00690520,0.00
 841920,-0.00055541,-0.01137818,-0.00037622,-0.00023163,0.00050964,-0.0
 0272126,-0.01282130,0.01322690,-0.07964920,-0.12828898,0.20969217,-0.0
 0428167,-0.00656081,0.00718696,-0.00007025,-0.00194492,0.00209772,0.00
 018546,-0.00019469,0.00096251,0.00186297,-0.00090395,0.00107576,-0.001
 43197,0.00096391,0.00111460,-0.00668565,0.00406482,0.00445598,-0.00155
 915,0.00052751,0.00110042,0.00036328,0.00021725,-0.00001871,0.00026778
 ,0.00069819,-0.00134826,-0.22002898,-0.00529130,-0.16318390,0.26793335
 ,-0.01524680,0.00585300,0.00191884,-0.00409765,0.02562540,-0.02236783,
 -0.01360261,-0.07188228,0.07795724,0.00143996,-0.00044988,-0.00025139,
 0.00079986,-0.00011804,0.00155161,-0.00031366,-0.00032508,0.00020379,0
 .00000126,-0.00001322,-0.00011502,0.00045163,0.00193550,-0.00456181,0.
 00106445,-0.00105349,0.00227439,-0.00262694,0.00041156,0.00374752,0.00
 014120,0.00008626,-0.00016179,0.00216981,0.00468454,-0.00673228,0.0039
 8351,0.02818899,-0.05851691,0.00005257,0.00157130,-0.00161864,0.000002
 63,0.00068083,-0.00060279,-0.00005365,0.00009871,-0.00032074,-0.000632
 29,0.00034342,-0.00039410,0.00041012,-0.00034597,-0.00033479,0.0020100
 8,-0.00157646,-0.00143140,0.00052817,-0.00021360,-0.00035447,-0.000126
 53,-0.00007970,-0.00000526,-0.00013063,-0.00023216,0.00044718,-0.06373
 536,-0.01438441,-0.01932784,0.08756314,0.02123692,0.06844269,-0.027925
 94,-0.00755599,0.00547329,-0.09755400,0.09159163,0.03364227,0.26312695
 ,-0.27254774,-0.00631279,0.00226657,0.00100350,-0.00352601,0.00028996,
 -0.00679287,0.00138639,0.00157519,-0.00080758,0.00002030,0.00003749,0.
 00047429,-0.00206752,-0.00931502,0.02011208,-0.00454873,0.00501709,-0.
 01014271,0.01254611,-0.00088926,-0.01675173,-0.00059706,-0.00036700,0.
 00074871,-0.00667047,-0.01970352,0.02427280,-0.06814082,-0.16723241,0.
 28723151,-0.00416022,-0.00801593,0.00995690,-0.00005243,-0.00306052,0.
 00302392,0.00025012,-0.00035875,0.00145343,0.00282082,-0.00145480,0.00
 168578,-0.00210570,0.00141488,0.00161264,-0.00914355,0.00567586,0.0066
 5599,-0.00231323,0.00078092,0.00159414,0.00055767,0.00034755,0.0000053
 1,0.00047293,0.00104531,-0.00200979,-0.03141036,0.02524802,-0.08694901
 ,0.01531208,0.02892346,-0.04772934\\0.,-0.00000003,0.00000001,-0.00000
 004,0.00000008,-0.00000010,-0.00000002,-0.00000019,0.00000031,0.000000
 03,0.,0.00000002,0.00000003,-0.00000004,0.00000001,-0.00000005,0.00000
 008,0.00000006,-0.00000004,0.00000003,0.00000009,0.00000007,0.00000002
 ,0.00000008,-0.00000002,0.,-0.00000005,0.00000002,0.,-0.00000002,-0.00
 000198,-0.00000205,-0.00000155,-0.00000001,0.00000003,0.,0.00000015,0.
 00000022,-0.00000038,0.,0.00000003,-0.00000007,0.,-0.00000004,-0.00000
 002,-0.00000004,-0.00000006,0.,0.,0.,0.00000007,0.,0.,0.,0.00000003,-0
 .00000002,-0.00000004,-0.00000002,0.,-0.00000002,0.00000037,-0.0000002
 8,-0.00000029,0.00000160,0.00000232,0.00000168,-0.00000028,-0.00000005
 ,-0.00000016,0.00000019,-0.00000006,0.00000038\\\@


 ADAM SMITH SAID, "THE REAL PRICE OF ANYTHING IS THE TOIL AND TROUBLE
 OF ACQUIRING IT."  BUT IN ALL UNDERTAKINGS WITH NATURE WE SHOULD FIRST
 READ CAREFULLY THE SMALL PRINT IN THE CONTRACT. THIS MIGHT DISCLOSE
 THAT THE REAL PRICE IS TO BE PAID BY THOSE WHO INHERIT THE DEPLETION
 AND DESPOILATION THAT FOLLOWS.
                               -- E. R. HARRISON IN "COSMOLOGY" (1980)
 Job cpu time:       0 days  0 hours  0 minutes 54.6 seconds.
 File lengths (MBytes):  RWF=     80 Int=      0 D2E=      0 Chk=      2 Scr=      1
 Normal termination of Gaussian 09 at Thu Feb  4 18:08:36 2021.
