21
Properties=species:S:1:pos:R:3 energy=-15607.18560658789 pbc="F F F"
O        1.12281000      -0.74675200      -0.98131600
C        2.18916200      -0.40936400      -0.65266400
C        3.39313700      -0.05246100      -0.27417600
C        4.23071600       0.96737100      -0.97650400
C        4.98434500       1.85909700       0.02453100
C        6.07047800       1.09464600       0.78408100
H        6.48956100       0.23606500       0.21198100
C        7.22400100       1.96764700       1.30201200
O        7.54349400       1.93076500       2.46934400
C        7.94737700       2.80802300       0.29581300
O        5.33113000       0.57583300       1.92905400
O        6.15075000      -0.35906900       2.59463000
H        3.84523400      -0.49519900       0.62641500
H        4.95092900       0.44985900      -1.64663300
H        3.60854900       1.60967300      -1.63370000
H        5.41532100       2.73019400      -0.50320200
H        4.26093600       2.27542300       0.76350200
H        7.93870200       2.38689700      -0.71594800
H        7.51206400       3.81756200       0.24192400
H        9.00081500       2.95035700       0.58879400
H        6.60835300       0.24396800       3.27437100
