9
Properties=species:S:1:pos:R:3 energy=-725.1142942425925 pbc="F F F"
C       -1.07172382      -0.10740271      -0.95345741
C        0.11777481       0.00567005      -0.19323580
H       -1.91199786       0.43465340      -0.48015939
H       -1.38355133      -1.15875500      -1.08739398
H       -0.94390694       0.32862112      -1.96393474
C        1.23021017       0.13977898       0.47424085
H        2.23583989       0.26943137       0.08272664
O        1.30700121       0.12300316       1.85685502
H        0.42035385      -0.03500036       2.26435881
9
Properties=species:S:1:pos:R:3 energy=-725.1142919450361 pbc="F F F"
C       -1.07172384      -0.10740455      -0.95345495
C        0.11776487       0.00565498      -0.19321575
H       -1.91199919       0.43465799      -0.48016646
H       -1.38356058      -1.15875318      -1.08739847
H       -0.94388850       0.32862104      -1.96392915
C        1.23020979       0.13978454       0.47424110
H        2.23583491       0.26943510       0.08271721
O        1.30700547       0.12301494       1.85685584
H        0.42035707      -0.03501085       2.26435062
9
Properties=species:S:1:pos:R:3 energy=-725.1142896401722 pbc="F F F"
C       -1.07172386      -0.10740638      -0.95345248
C        0.11775493       0.00563989      -0.19319567
H       -1.91200052       0.43466258      -0.48017353
H       -1.38356984      -1.15875136      -1.08740296
H       -0.94387004       0.32862095      -1.96392354
C        1.23020941       0.13979010       0.47424135
H        2.23582992       0.26943884       0.08270777
O        1.30700972       0.12302673       1.85685666
H        0.42036028      -0.03502135       2.26434239
9
Properties=species:S:1:pos:R:3 energy=-725.1142873279492 pbc="F F F"
C       -1.07172388      -0.10740822      -0.95345000
C        0.11774497       0.00562478      -0.19317556
H       -1.91200185       0.43466718      -0.48018060
H       -1.38357912      -1.15874954      -1.08740744
H       -0.94385154       0.32862087      -1.96391792
C        1.23020904       0.13979568       0.47424160
H        2.23582493       0.26944260       0.08269832
O        1.30701397       0.12303853       1.85685748
H        0.42036348      -0.03503187       2.26433413
9
Properties=species:S:1:pos:R:3 energy=-725.1142850083507 pbc="F F F"
C       -1.07172390      -0.10741006      -0.95344752
C        0.11773500       0.00560965      -0.19315542
H       -1.91200318       0.43467179      -0.48018768
H       -1.38358841      -1.15874771      -1.08741192
H       -0.94383302       0.32862077      -1.96391229
C        1.23020867       0.13980125       0.47424184
H        2.23581994       0.26944637       0.08268885
O        1.30701823       0.12305033       1.85685830
H        0.42036667      -0.03504241       2.26432584
9
Properties=species:S:1:pos:R:3 energy=-725.1142826813608 pbc="F F F"
C       -1.07172391      -0.10741190      -0.95344502
C        0.11772502       0.00559450      -0.19313525
H       -1.91200451       0.43467642      -0.48019476
H       -1.38359771      -1.15874589      -1.08741640
H       -0.94381448       0.32862068      -1.96390665
C        1.23020831       0.13980684       0.47424208
H        2.23581495       0.26945016       0.08267937
O        1.30702248       0.12306215       1.85685912
H        0.42036985      -0.03505296       2.26431752
9
Properties=species:S:1:pos:R:3 energy=-725.1142803469295 pbc="F F F"
C       -1.07172393      -0.10741375      -0.95344252
C        0.11771502       0.00557932      -0.19311505
H       -1.91200583       0.43468105      -0.48020185
H       -1.38360703      -1.15874405      -1.08742088
H       -0.94379591       0.32862058      -1.96390100
C        1.23020795       0.13981244       0.47424232
H        2.23580996       0.26945396       0.08266987
O        1.30702674       0.12307397       1.85685994
H        0.42037301      -0.03506352       2.26430917
9
Properties=species:S:1:pos:R:3 energy=-725.1142780050678 pbc="F F F"
C       -1.07172394      -0.10741560      -0.95344001
C        0.11770502       0.00556412      -0.19309482
H       -1.91200715       0.43468569      -0.48020894
H       -1.38361636      -1.15874222      -1.08742535
H       -0.94377731       0.32862048      -1.96389533
C        1.23020760       0.13981804       0.47424255
H        2.23580496       0.26945777       0.08266036
O        1.30703100       0.12308581       1.85686076
H        0.42037617      -0.03507409       2.26430078
9
Properties=species:S:1:pos:R:3 energy=-725.1142756557018 pbc="F F F"
C       -1.07172395      -0.10741745      -0.95343749
C        0.11769501       0.00554890      -0.19307455
H       -1.91200847       0.43469034      -0.48021604
H       -1.38362570      -1.15874038      -1.08742983
H       -0.94375868       0.32862037      -1.96388966
C        1.23020725       0.13982365       0.47424278
H        2.23579996       0.26946160       0.08265084
O        1.30703526       0.12309765       1.85686158
H        0.42037932      -0.03508468       2.26429237
9
Properties=species:S:1:pos:R:3 energy=-725.114273298818 pbc="F F F"
C       -1.07172396      -0.10741930      -0.95343496
C        0.11768499       0.00553365      -0.19305426
H       -1.91200979       0.43469500      -0.48022314
H       -1.38363506      -1.15873854      -1.08743430
H       -0.94374003       0.32862026      -1.96388397
C        1.23020691       0.13982927       0.47424301
H        2.23579496       0.26946544       0.08264131
O        1.30703952       0.12310950       1.85686239
H        0.42038246      -0.03509529       2.26428392
9
Properties=species:S:1:pos:R:3 energy=-725.1142709344053 pbc="F F F"
C       -1.07172397      -0.10742116      -0.95343243
C        0.11767495       0.00551839      -0.19303394
H       -1.91201110       0.43469967      -0.48023025
H       -1.38364444      -1.15873670      -1.08743877
H       -0.94372134       0.32862015      -1.96387827
C        1.23020658       0.13983490       0.47424324
H        2.23578996       0.26946929       0.08263176
O        1.30704378       0.12312136       1.85686321
H        0.42038558      -0.03510591       2.26427544
9
Properties=species:S:1:pos:R:3 energy=-725.1142685624127 pbc="F F F"
C       -1.07172398      -0.10742302      -0.95342988
C        0.11766491       0.00550310      -0.19301358
H       -1.91201241       0.43470435      -0.48023736
H       -1.38365383      -1.15873485      -1.08744323
H       -0.94370264       0.32862003      -1.96387256
C        1.23020625       0.13984053       0.47424346
H        2.23578495       0.26947316       0.08262220
O        1.30704804       0.12313323       1.85686402
H        0.42038870      -0.03511654       2.26426693
9
Properties=species:S:1:pos:R:3 energy=-725.1142661828394 pbc="F F F"
C       -1.07172398      -0.10742488      -0.95342733
C        0.11765485       0.00548779      -0.19299320
H       -1.91201372       0.43470905      -0.48024448
H       -1.38366323      -1.15873301      -1.08744770
H       -0.94368390       0.32861991      -1.96386684
C        1.23020592       0.13984617       0.47424368
H        2.23577995       0.26947704       0.08261263
O        1.30705231       0.12314511       1.85686484
H        0.42039180      -0.03512719       2.26425839
9
Properties=species:S:1:pos:R:3 energy=-725.1142637956341 pbc="F F F"
C       -1.07172398      -0.10742674      -0.95342476
C        0.11764479       0.00547246      -0.19297278
H       -1.91201503       0.43471375      -0.48025160
H       -1.38367265      -1.15873115      -1.08745216
H       -0.94366514       0.32861979      -1.96386110
C        1.23020561       0.13985182       0.47424390
H        2.23577494       0.26948094       0.08260305
O        1.30705657       0.12315700       1.85686565
H        0.42039490      -0.03513785       2.26424982
9
Properties=species:S:1:pos:R:3 energy=-725.114261400772 pbc="F F F"
C       -1.07172398      -0.10742861      -0.95342219
C        0.11763471       0.00545710      -0.19295234
H       -1.91201633       0.43471846      -0.48025873
H       -1.38368208      -1.15872930      -1.08745662
H       -0.94364635       0.32861966      -1.96385535
C        1.23020529       0.13985748       0.47424411
H        2.23576993       0.26948484       0.08259345
O        1.30706084       0.12316890       1.85686646
H        0.42039798      -0.03514853       2.26424121
9
Properties=species:S:1:pos:R:3 energy=-725.1142589982243 pbc="F F F"
C       -1.07172398      -0.10743048      -0.95341961
C        0.11762462       0.00544172      -0.19293186
H       -1.91201763       0.43472318      -0.48026586
H       -1.38369152      -1.15872744      -1.08746108
H       -0.94362753       0.32861953      -1.96384959
C        1.23020498       0.13986315       0.47424432
H        2.23576491       0.26948877       0.08258384
O        1.30706510       0.12318080       1.85686728
H        0.42040105      -0.03515922       2.26423257
9
Properties=species:S:1:pos:R:3 energy=-725.114256587974 pbc="F F F"
C       -1.07172398      -0.10743235      -0.95341702
C        0.11761452       0.00542632      -0.19291135
H       -1.91201893       0.43472791      -0.48027300
H       -1.38370098      -1.15872558      -1.08746553
H       -0.94360869       0.32861939      -1.96384382
C        1.23020468       0.13986882       0.47424452
H        2.23575990       0.26949270       0.08257421
O        1.30706937       0.12319272       1.85686809
H        0.42040411      -0.03516992       2.26422390
9
Properties=species:S:1:pos:R:3 energy=-725.1142541699733 pbc="F F F"
C       -1.07172397      -0.10743423      -0.95341442
C        0.11760441       0.00541090      -0.19289082
H       -1.91202023       0.43473264      -0.48028014
H       -1.38371046      -1.15872371      -1.08746998
H       -0.94358982       0.32861925      -1.96383804
C        1.23020438       0.13987451       0.47424473
H        2.23575488       0.26949665       0.08256457
O        1.30707364       0.12320464       1.85686890
H        0.42040717      -0.03518064       2.26421520
9
Properties=species:S:1:pos:R:3 energy=-725.1142517442165 pbc="F F F"
C       -1.07172397      -0.10743611      -0.95341182
C        0.11759429       0.00539545      -0.19287025
H       -1.91202153       0.43473739      -0.48028728
H       -1.38371995      -1.15872185      -1.08747444
H       -0.94357092       0.32861910      -1.96383225
C        1.23020409       0.13988020       0.47424493
H        2.23574986       0.26950061       0.08255492
O        1.30707791       0.12321657       1.85686971
H        0.42041021      -0.03519138       2.26420647
9
Properties=species:S:1:pos:R:3 energy=-725.1142493106515 pbc="F F F"
C       -1.07172396      -0.10743799      -0.95340920
C        0.11758416       0.00537998      -0.19284965
H       -1.91202282       0.43474215      -0.48029443
H       -1.38372945      -1.15871998      -1.08747888
H       -0.94355200       0.32861896      -1.96382644
C        1.23020381       0.13988589       0.47424513
H        2.23574484       0.26950459       0.08254526
O        1.30708218       0.12322851       1.85687052
H        0.42041323      -0.03520213       2.26419770
9
Properties=species:S:1:pos:R:3 energy=-725.1142468692619 pbc="F F F"
C       -1.07172395      -0.10743987      -0.95340658
C        0.11757402       0.00536449      -0.19282901
H       -1.91202411       0.43474692      -0.48030159
H       -1.38373897      -1.15871810      -1.08748333
H       -0.94353304       0.32861880      -1.96382062
C        1.23020353       0.13989160       0.47424532
H        2.23573982       0.26950858       0.08253558
O        1.30708645       0.12324046       1.85687132
H        0.42041625      -0.03521289       2.26418890
9
Properties=species:S:1:pos:R:3 energy=-725.1142444200128 pbc="F F F"
C       -1.07172394      -0.10744176      -0.95340394
C        0.11756387       0.00534898      -0.19280835
H       -1.91202540       0.43475170      -0.48030874
H       -1.38374850      -1.15871623      -1.08748777
H       -0.94351406       0.32861865      -1.96381479
C        1.23020325       0.13989732       0.47424551
H        2.23573480       0.26951259       0.08252589
O        1.30709072       0.12325242       1.85687213
H        0.42041926      -0.03522367       2.26418007
9
Properties=species:S:1:pos:R:3 energy=-725.1142419628811 pbc="F F F"
C       -1.07172393      -0.10744365      -0.95340130
C        0.11755371       0.00533344      -0.19278766
H       -1.91202668       0.43475649      -0.48031591
H       -1.38375805      -1.15871435      -1.08749221
H       -0.94349505       0.32861849      -1.96380895
C        1.23020298       0.13990304       0.47424570
H        2.23572977       0.26951661       0.08251619
O        1.30709500       0.12326439       1.85687294
H        0.42042226      -0.03523446       2.26417120
9
Properties=species:S:1:pos:R:3 energy=-725.1142394978358 pbc="F F F"
C       -1.07172391      -0.10744554      -0.95339865
C        0.11754353       0.00531788      -0.19276693
H       -1.91202796       0.43476129      -0.48032308
H       -1.38376761      -1.15871247      -1.08749665
H       -0.94347602       0.32861832      -1.96380309
C        1.23020272       0.13990877       0.47424589
H        2.23572474       0.26952064       0.08250647
O        1.30709927       0.12327637       1.85687374
H        0.42042524      -0.03524527       2.26416231
9
Properties=species:S:1:pos:R:3 energy=-725.1142370248378 pbc="F F F"
C       -1.07172389      -0.10744744      -0.95339599
C        0.11753335       0.00530230      -0.19274618
H       -1.91202924       0.43476610      -0.48033025
H       -1.38377719      -1.15871058      -1.08750109
H       -0.94345695       0.32861816      -1.96379722
C        1.23020246       0.13991451       0.47424607
H        2.23571971       0.26952469       0.08249674
O        1.30710355       0.12328835       1.85687455
H        0.42042822      -0.03525609       2.26415337
9
Properties=species:S:1:pos:R:3 energy=-725.1142345438724 pbc="F F F"
C       -1.07172387      -0.10744933      -0.95339332
C        0.11752315       0.00528670      -0.19272539
H       -1.91203052       0.43477092      -0.48033743
H       -1.38378678      -1.15870869      -1.08750552
H       -0.94343786       0.32861799      -1.96379134
C        1.23020221       0.13992026       0.47424625
H        2.23571468       0.26952875       0.08248700
O        1.30710782       0.12330035       1.85687535
H        0.42043118      -0.03526693       2.26414441
9
Properties=species:S:1:pos:R:3 energy=-725.1142320549119 pbc="F F F"
C       -1.07172385      -0.10745123      -0.95339064
C        0.11751295       0.00527107      -0.19270457
H       -1.91203180       0.43477575      -0.48034461
H       -1.38379638      -1.15870680      -1.08750995
H       -0.94341874       0.32861781      -1.96378545
C        1.23020196       0.13992601       0.47424642
H        2.23570964       0.26953282       0.08247724
O        1.30711210       0.12331235       1.85687615
H        0.42043413      -0.03527778       2.26413541
9
Properties=species:S:1:pos:R:3 energy=-725.1142295578957 pbc="F F F"
C       -1.07172383      -0.10745314      -0.95338796
C        0.11750273       0.00525542      -0.19268372
H       -1.91203307       0.43478059      -0.48035180
H       -1.38380600      -1.15870491      -1.08751438
H       -0.94339960       0.32861763      -1.96377955
C        1.23020172       0.13993177       0.47424659
H        2.23570461       0.26953691       0.08246747
O        1.30711637       0.12332437       1.85687696
H        0.42043707      -0.03528864       2.26412639
9
Properties=species:S:1:pos:R:3 energy=-725.1142270528271 pbc="F F F"
C       -1.07172381      -0.10745504      -0.95338526
C        0.11749250       0.00523974      -0.19266284
H       -1.91203434       0.43478544      -0.48035899
H       -1.38381564      -1.15870301      -1.08751880
H       -0.94338042       0.32861745      -1.96377363
C        1.23020148       0.13993755       0.47424676
H        2.23569957       0.26954101       0.08245768
O        1.30712065       0.12333639       1.85687776
H        0.42044000      -0.03529952       2.26411732
9
Properties=species:S:1:pos:R:3 energy=-725.1142245396604 pbc="F F F"
C       -1.07172378      -0.10745695      -0.95338256
C        0.11748226       0.00522404      -0.19264193
H       -1.91203561       0.43479030      -0.48036619
H       -1.38382529      -1.15870111      -1.08752323
H       -0.94336122       0.32861726      -1.96376770
C        1.23020125       0.13994332       0.47424693
H        2.23569453       0.26954513       0.08244789
O        1.30712493       0.12334842       1.85687856
H        0.42044292      -0.03531042       2.26410823
9
Properties=species:S:1:pos:R:3 energy=-725.1142220183789 pbc="F F F"
C       -1.07172375      -0.10745887      -0.95337984
C        0.11747201       0.00520832      -0.19262098
H       -1.91203687       0.43479517      -0.48037339
H       -1.38383495      -1.15869920      -1.08752765
H       -0.94334199       0.32861707      -1.96376176
C        1.23020103       0.13994911       0.47424709
H        2.23568949       0.26954926       0.08243808
O        1.30712921       0.12336046       1.85687936
H        0.42044582      -0.03532133       2.26409910
9
Properties=species:S:1:pos:R:3 energy=-725.1142194889304 pbc="F F F"
C       -1.07172372      -0.10746078      -0.95337712
C        0.11746175       0.00519258      -0.19260000
H       -1.91203813       0.43480005      -0.48038060
H       -1.38384463      -1.15869730      -1.08753206
H       -0.94332273       0.32861687      -1.96375581
C        1.23020081       0.13995491       0.47424725
H        2.23568445       0.26955341       0.08242825
O        1.30713349       0.12337251       1.85688016
H        0.42044872      -0.03533225       2.26408993
9
Properties=species:S:1:pos:R:3 energy=-725.1142169512988 pbc="F F F"
C       -1.07172369      -0.10746270      -0.95337439
C        0.11745148       0.00517681      -0.19257900
H       -1.91203939       0.43480494      -0.48038781
H       -1.38385432      -1.15869539      -1.08753648
H       -0.94330345       0.32861667      -1.96374984
C        1.23020060       0.13996071       0.47424740
H        2.23567940       0.26955757       0.08241841
O        1.30713777       0.12338457       1.85688096
H        0.42045160      -0.03534319       2.26408074
9
Properties=species:S:1:pos:R:3 energy=-725.1142144054544 pbc="F F F"
C       -1.07172366      -0.10746462      -0.95337165
C        0.11744120       0.00516102      -0.19255796
H       -1.91204065       0.43480984      -0.48039502
H       -1.38386403      -1.15869347      -1.08754089
H       -0.94328413       0.32861647      -1.96374387
C        1.23020039       0.13996652       0.47424756
H        2.23567436       0.26956174       0.08240856
O        1.30714206       0.12339664       1.85688175
H        0.42045447      -0.03535415       2.26407151
9
Properties=species:S:1:pos:R:3 energy=-725.1142118513525 pbc="F F F"
C       -1.07172362      -0.10746654      -0.95336889
C        0.11743090       0.00514521      -0.19253688
H       -1.91204191       0.43481475      -0.48040224
H       -1.38387376      -1.15869156      -1.08754530
H       -0.94326479       0.32861626      -1.96373787
C        1.23020019       0.13997234       0.47424771
H        2.23566931       0.26956593       0.08239870
O        1.30714634       0.12340872       1.85688255
H        0.42045733      -0.03536511       2.26406224
9
Properties=species:S:1:pos:R:3 energy=-725.1142092889793 pbc="F F F"
C       -1.07172358      -0.10746847      -0.95336613
C        0.11742060       0.00512938      -0.19251578
H       -1.91204316       0.43481967      -0.48040947
H       -1.38388349      -1.15868964      -1.08754971
H       -0.94324542       0.32861605      -1.96373187
C        1.23020000       0.13997817       0.47424785
H        2.23566426       0.26957013       0.08238882
O        1.30715062       0.12342081       1.85688334
H        0.42046018      -0.03537610       2.26405294
9
Properties=species:S:1:pos:R:3 energy=-725.1142067182881 pbc="F F F"
C       -1.07172354      -0.10747040      -0.95336337
C        0.11741029       0.00511352      -0.19249465
H       -1.91204441       0.43482460      -0.48041670
H       -1.38389325      -1.15868771      -1.08755411
H       -0.94322602       0.32861584      -1.96372586
C        1.23019981       0.13998401       0.47424799
H        2.23565920       0.26957435       0.08237893
O        1.30715491       0.12343290       1.85688414
H        0.42046302      -0.03538710       2.26404361
9
Properties=species:S:1:pos:R:3 energy=-725.1142041392648 pbc="F F F"
C       -1.07172350      -0.10747233      -0.95336059
C        0.11739996       0.00509763      -0.19247348
H       -1.91204565       0.43482954      -0.48042393
H       -1.38390301      -1.15868579      -1.08755852
H       -0.94320660       0.32861562      -1.96371983
C        1.23019962       0.13998986       0.47424813
H        2.23565415       0.26957858       0.08236903
O        1.30715919       0.12344501       1.85688493
H        0.42046584      -0.03539811       2.26403425
9
Properties=species:S:1:pos:R:3 energy=-725.114201551881 pbc="F F F"
C       -1.07172346      -0.10747426      -0.95335780
C        0.11738962       0.00508173      -0.19245228
H       -1.91204690       0.43483449      -0.48043117
H       -1.38391280      -1.15868386      -1.08756291
H       -0.94318714       0.32861539      -1.96371379
C        1.23019945       0.13999571       0.47424827
H        2.23564909       0.26958282       0.08235911
O        1.30716348       0.12345712       1.85688573
H        0.42046865      -0.03540914       2.26402485
9
Properties=species:S:1:pos:R:3 energy=-725.114198956076 pbc="F F F"
C       -1.07172341      -0.10747620      -0.95335500
C        0.11737927       0.00506580      -0.19243105
H       -1.91204814       0.43483945      -0.48043841
H       -1.38392259      -1.15868193      -1.08756731
H       -0.94316766       0.32861517      -1.96370773
C        1.23019928       0.14000157       0.47424840
H        2.23564404       0.26958708       0.08234917
O        1.30716776       0.12346924       1.85688652
H        0.42047146      -0.03542018       2.26401541
9
Properties=species:S:1:pos:R:3 energy=-725.1141963518379 pbc="F F F"
C       -1.07172337      -0.10747814      -0.95335220
C        0.11736892       0.00504984      -0.19240978
H       -1.91204938       0.43484442      -0.48044566
H       -1.38393241      -1.15867999      -1.08757171
H       -0.94314815       0.32861493      -1.96370167
C        1.23019911       0.14000744       0.47424853
H        2.23563898       0.26959136       0.08233923
O        1.30717205       0.12348138       1.85688731
H        0.42047424      -0.03543124       2.26400594
9
Properties=species:S:1:pos:R:3 energy=-725.1141937391228 pbc="F F F"
C       -1.07172332      -0.10748008      -0.95334938
C        0.11735855       0.00503387      -0.19238849
H       -1.91205061       0.43484940      -0.48045291
H       -1.38394223      -1.15867805      -1.08757610
H       -0.94312861       0.32861470      -1.96369559
C        1.23019895       0.14001332       0.47424866
H        2.23563392       0.26959565       0.08232927
O        1.30717634       0.12349352       1.85688810
H        0.42047702      -0.03544232       2.26399644
9
Properties=species:S:1:pos:R:3 energy=-725.11419111791 pbc="F F F"
C       -1.07172327      -0.10748203      -0.95334656
C        0.11734817       0.00501787      -0.19236716
H       -1.91205184       0.43485439      -0.48046017
H       -1.38395208      -1.15867611      -1.08758048
H       -0.94310904       0.32861446      -1.96368950
C        1.23019880       0.14001920       0.47424878
H        2.23562885       0.26959995       0.08231930
O        1.30718063       0.12350567       1.85688889
H        0.42047979      -0.03545340       2.26398690
9
Properties=species:S:1:pos:R:3 energy=-725.114188488181 pbc="F F F"
C       -1.07172321      -0.10748398      -0.95334372
C        0.11733777       0.00500184      -0.19234580
H       -1.91205307       0.43485940      -0.48046743
H       -1.38396193      -1.15867417      -1.08758487
H       -0.94308945       0.32861422      -1.96368340
C        1.23019865       0.14002510       0.47424890
H        2.23562379       0.26960427       0.08230931
O        1.30718492       0.12351783       1.85688968
H        0.42048254      -0.03546451       2.26397733
9
Properties=species:S:1:pos:R:3 energy=-725.1141858498877 pbc="F F F"
C       -1.07172316      -0.10748593      -0.95334088
C        0.11732737       0.00498580      -0.19232441
H       -1.91205430       0.43486441      -0.48047469
H       -1.38397181      -1.15867222      -1.08758925
H       -0.94306982       0.32861397      -1.96367728
C        1.23019851       0.14003100       0.47424901
H        2.23561872       0.26960860       0.08229931
O        1.30718921       0.12353000       1.85689046
H        0.42048528      -0.03547563       2.26396772
9
Properties=species:S:1:pos:R:3 energy=-725.1141832029854 pbc="F F F"
C       -1.07172310      -0.10748789      -0.95333802
C        0.11731696       0.00496973      -0.19230298
H       -1.91205553       0.43486943      -0.48048196
H       -1.38398169      -1.15867027      -1.08759363
H       -0.94305017       0.32861372      -1.96367115
C        1.23019837       0.14003691       0.47424913
H        2.23561365       0.26961295       0.08228930
O        1.30719350       0.12354218       1.85689125
H        0.42048801      -0.03548676       2.26395808
9
Properties=species:S:1:pos:R:3 energy=-725.1141805474455 pbc="F F F"
C       -1.07172304      -0.10748984      -0.95333516
C        0.11730653       0.00495363      -0.19228153
H       -1.91205675       0.43487446      -0.48048924
H       -1.38399160      -1.15866831      -1.08759801
H       -0.94303049       0.32861346      -1.96366501
C        1.23019825       0.14004283       0.47424923
H        2.23560858       0.26961731       0.08227927
O        1.30719779       0.12355437       1.85689203
H        0.42049073      -0.03549791       2.26394840
9
Properties=species:S:1:pos:R:3 energy=-725.1141778832704 pbc="F F F"
C       -1.07172298      -0.10749180      -0.95333229
C        0.11729610       0.00493751      -0.19226004
H       -1.91205797       0.43487951      -0.48049652
H       -1.38400151      -1.15866636      -1.08760238
H       -0.94301078       0.32861320      -1.96365885
C        1.23019812       0.14004876       0.47424934
H        2.23560351       0.26962169       0.08226923
O        1.30720208       0.12356656       1.85689282
H        0.42049343      -0.03550907       2.26393869
9
Properties=species:S:1:pos:R:3 energy=-725.1141752103755 pbc="F F F"
C       -1.07172292      -0.10749377      -0.95332941
C        0.11728565       0.00492137      -0.19223852
H       -1.91205918       0.43488456      -0.48050380
H       -1.38401145      -1.15866439      -1.08760675
H       -0.94299104       0.32861294      -1.96365269
C        1.23019801       0.14005470       0.47424944
H        2.23559844       0.26962608       0.08225917
O        1.30720637       0.12357877       1.85689360
H        0.42049612      -0.03552025       2.26392895
9
Properties=species:S:1:pos:R:3 energy=-725.1141725287704 pbc="F F F"
C       -1.07172286      -0.10749573      -0.95332652
C        0.11727519       0.00490521      -0.19221696
H       -1.91206040       0.43488963      -0.48051109
H       -1.38402139      -1.15866243      -1.08761112
H       -0.94297127       0.32861267      -1.96364650
C        1.23019789       0.14006064       0.47424954
H        2.23559336       0.26963048       0.08224910
O        1.30721067       0.12359099       1.85689439
H        0.42049880      -0.03553145       2.26391916
9
Properties=species:S:1:pos:R:3 energy=-725.1141698384099 pbc="F F F"
C       -1.07172279      -0.10749770      -0.95332361
C        0.11726472       0.00488902      -0.19219537
H       -1.91206161       0.43489470      -0.48051838
H       -1.38403136      -1.15866046      -1.08761549
H       -0.94295148       0.32861239      -1.96364031
C        1.23019779       0.14006660       0.47424963
H        2.23558829       0.26963491       0.08223902
O        1.30721496       0.12360321       1.85689517
H        0.42050147      -0.03554266       2.26390935
9
Properties=species:S:1:pos:R:3 energy=-725.1141671392494 pbc="F F F"
C       -1.07172272      -0.10749968      -0.95332070
C        0.11725424       0.00487280      -0.19217375
H       -1.91206282       0.43489979      -0.48052568
H       -1.38404133      -1.15865849      -1.08761985
H       -0.94293165       0.32861212      -1.96363410
C        1.23019769       0.14007256       0.47424972
H        2.23558321       0.26963934       0.08222892
O        1.30721925       0.12361545       1.85689595
H        0.42050412      -0.03555388       2.26389949
9
Properties=species:S:1:pos:R:3 energy=-725.1141644312781 pbc="F F F"
C       -1.07172265      -0.10750165      -0.95331778
C        0.11724375       0.00485657      -0.19215210
H       -1.91206402       0.43490488      -0.48053298
H       -1.38405133      -1.15865652      -1.08762421
H       -0.94291180       0.32861184      -1.96362789
C        1.23019760       0.14007853       0.47424981
H        2.23557813       0.26964379       0.08221881
O        1.30722355       0.12362769       1.85689673
H        0.42050677      -0.03556512       2.26388961
9
Properties=species:S:1:pos:R:3 energy=-725.1141617144281 pbc="F F F"
C       -1.07172258      -0.10750363      -0.95331485
C        0.11723325       0.00484031      -0.19213042
H       -1.91206522       0.43490999      -0.48054029
H       -1.38406133      -1.15865454      -1.08762857
H       -0.94289191       0.32861155      -1.96362165
C        1.23019751       0.14008450       0.47424990
H        2.23557305       0.26964826       0.08220869