 Entering Gaussian System, Link 0=g09
 Initial command:
 /apps/applications/gaussian/G09.D01/2/default/g09/l1.exe "/nobackup/chmrsh/Scratch/Gau-144897.inp" -scrdir="/nobackup/chmrsh/Scratch/"
 Entering Link 1 = /apps/applications/gaussian/G09.D01/2/default/g09/l1.exe PID=    144898.
  
 Copyright (c) 1988,1990,1992,1993,1995,1998,2003,2009,2013,
            Gaussian, Inc.  All Rights Reserved.
  
 This is part of the Gaussian(R) 09 program.  It is based on
 the Gaussian(R) 03 system (copyright 2003, Gaussian, Inc.),
 the Gaussian(R) 98 system (copyright 1998, Gaussian, Inc.),
 the Gaussian(R) 94 system (copyright 1995, Gaussian, Inc.),
 the Gaussian 92(TM) system (copyright 1992, Gaussian, Inc.),
 the Gaussian 90(TM) system (copyright 1990, Gaussian, Inc.),
 the Gaussian 88(TM) system (copyright 1988, Gaussian, Inc.),
 the Gaussian 86(TM) system (copyright 1986, Carnegie Mellon
 University), and the Gaussian 82(TM) system (copyright 1983,
 Carnegie Mellon University). Gaussian is a federally registered
 trademark of Gaussian, Inc.
  
 This software contains proprietary and confidential information,
 including trade secrets, belonging to Gaussian, Inc.
  
 This software is provided under written license and may be
 used, copied, transmitted, or stored only in accord with that
 written license.
  
 The following legend is applicable only to US Government
 contracts under FAR:
  
                    RESTRICTED RIGHTS LEGEND
  
 Use, reproduction and disclosure by the US Government is
 subject to restrictions as set forth in subparagraphs (a)
 and (c) of the Commercial Computer Software - Restricted
 Rights clause in FAR 52.227-19.
  
 Gaussian, Inc.
 340 Quinnipiac St., Bldg. 40, Wallingford CT 06492
  
  
 ---------------------------------------------------------------
 Warning -- This program may not be used in any manner that
 competes with the business of Gaussian, Inc. or will provide
 assistance to any competitor of Gaussian, Inc.  The licensee
 of this program is prohibited from giving any competitor of
 Gaussian, Inc. access to this program.  By using this program,
 the user acknowledges that Gaussian, Inc. is engaged in the
 business of creating and licensing software in the field of
 computational chemistry and represents and warrants to the
 licensee that it is not a competitor of Gaussian, Inc. and that
 it will not use this program in any manner prohibited above.
 ---------------------------------------------------------------
  

 Cite this work as:
 Gaussian 09, Revision D.01,
 M. J. Frisch, G. W. Trucks, H. B. Schlegel, G. E. Scuseria, 
 M. A. Robb, J. R. Cheeseman, G. Scalmani, V. Barone, B. Mennucci, 
 G. A. Petersson, H. Nakatsuji, M. Caricato, X. Li, H. P. Hratchian, 
 A. F. Izmaylov, J. Bloino, G. Zheng, J. L. Sonnenberg, M. Hada, 
 M. Ehara, K. Toyota, R. Fukuda, J. Hasegawa, M. Ishida, T. Nakajima, 
 Y. Honda, O. Kitao, H. Nakai, T. Vreven, J. A. Montgomery, Jr., 
 J. E. Peralta, F. Ogliaro, M. Bearpark, J. J. Heyd, E. Brothers, 
 K. N. Kudin, V. N. Staroverov, T. Keith, R. Kobayashi, J. Normand, 
 K. Raghavachari, A. Rendell, J. C. Burant, S. S. Iyengar, J. Tomasi, 
 M. Cossi, N. Rega, J. M. Millam, M. Klene, J. E. Knox, J. B. Cross, 
 V. Bakken, C. Adamo, J. Jaramillo, R. Gomperts, R. E. Stratmann, 
 O. Yazyev, A. J. Austin, R. Cammi, C. Pomelli, J. W. Ochterski, 
 R. L. Martin, K. Morokuma, V. G. Zakrzewski, G. A. Voth, 
 P. Salvador, J. J. Dannenberg, S. Dapprich, A. D. Daniels, 
 O. Farkas, J. B. Foresman, J. V. Ortiz, J. Cioslowski, 
 and D. J. Fox, Gaussian, Inc., Wallingford CT, 2013.
 
 ******************************************
 Gaussian 09:  ES64L-G09RevD.01 24-Apr-2013
                 6-Jan-2021 
 ******************************************
 ----------------------------------------------------------------------
 #P b3lyp/3-21G scf=qc opt(calcall, ts, noeigentest, cartesian,maxcycle
 =100)
 ----------------------------------------------------------------------
 1/5=1,6=100,10=4,11=1,14=-1,18=10,26=3,38=1/1,3;
 2/12=2,17=6,18=5,29=2,40=1/2;
 3/5=5,11=2,16=1,25=1,30=1,71=2,74=-5,140=1/1,2,3;
 4//1;
 5/5=2,8=3,38=5/8;
 8/6=4,10=90,11=11/1;
 11/6=1,8=1,9=11,15=111,16=1/1,2,10;
 10/6=1/2;
 6/7=2,8=2,9=2,10=2,18=1,28=1/1;
 7/7=1,10=1,25=1/1,2,3,16;
 1/5=1,6=100,10=4,11=1,14=-1,18=10,26=3/3(3);
 2/29=1/2;
 7/7=1,8=1,9=1,25=1,44=-1/16;
 99/12=1/99;
 2/29=1/2;
 3/5=5,11=2,16=1,25=1,30=1,71=2,74=-5,140=1/1,2,3;
 4/5=5,16=3,69=1/1;
 5/5=2,8=3,38=5/8;
 8/6=4,10=90,11=11/1;
 11/6=1,8=1,9=11,15=111,16=1/1,2,10;
 10/6=1/2;
 7/7=1,10=1,25=1/1,2,3,16;
 1/5=1,6=100,10=4,11=1,14=-1,18=10,26=3/3(-8);
 2/29=1/2;
 6/7=2,8=2,9=2,10=2,18=1,19=2,28=1/1;
 7/7=1,8=1,9=1,25=1,44=-1/16;
 99/12=1/99;
 Leave Link    1 at Wed Jan  6 21:14:15 2021, MaxMem=           0 cpu:         0.0
 (Enter /apps/applications/gaussian/G09.D01/2/default/g09/l101.exe)
 ------------------------------
 Gaussian input prepared by ASE
 ------------------------------
 Symbolic Z-matrix:
 Charge =  0 Multiplicity = 2
 C                    -0.84657   0.94598   0.21775 
 C                    -0.10576  -0.25234  -0.05368 
 H                    -0.43138   1.54948   1.03989 
 H                    -1.8971    0.70787   0.46676 
 H                    -0.88652   1.5965   -0.67548 
 C                     1.08953  -0.86661   0.20222 
 H                     1.80836  -0.93539   0.99134 
 O                     1.23595  -1.59511  -0.90581 
 H                     0.0335   -1.15038  -1.283 
 
 NAtoms=      9 NQM=        9 NQMF=       0 NMMI=      0 NMMIF=      0
                NMic=       0 NMicF=      0.
                    Isotopes and Nuclear Properties:
 (Nuclear quadrupole moments (NQMom) in fm**2, nuclear magnetic moments (NMagM)
  in nuclear magnetons)

  Atom         1           2           3           4           5           6           7           8           9
 IAtWgt=          12          12           1           1           1          12           1          16           1
 AtmWgt=  12.0000000  12.0000000   1.0078250   1.0078250   1.0078250  12.0000000   1.0078250  15.9949146   1.0078250
 NucSpn=           0           0           1           1           1           0           1           0           1
 AtZEff=   0.0000000   0.0000000   0.0000000   0.0000000   0.0000000   0.0000000   0.0000000   0.0000000   0.0000000
 NQMom=    0.0000000   0.0000000   0.0000000   0.0000000   0.0000000   0.0000000   0.0000000   0.0000000   0.0000000
 NMagM=    0.0000000   0.0000000   2.7928460   2.7928460   2.7928460   0.0000000   2.7928460   0.0000000   2.7928460
 AtZNuc=   6.0000000   6.0000000   1.0000000   1.0000000   1.0000000   6.0000000   1.0000000   8.0000000   1.0000000
 Leave Link  101 at Wed Jan  6 21:14:16 2021, MaxMem=    33554432 cpu:         0.2
 (Enter /apps/applications/gaussian/G09.D01/2/default/g09/l103.exe)

 GradGradGradGradGradGradGradGradGradGradGradGradGradGradGradGradGradGrad
 Berny optimization.
 Initialization pass.
 No Z-matrix variables, so optimization will use Cartesian coordinates.
 Trust Radius=3.00D-01 FncErr=1.00D-07 GrdErr=1.00D-06
 Number of steps in this run=    100 maximum allowed number of steps=    100.
 Search for a saddle point of order  1.
 GradGradGradGradGradGradGradGradGradGradGradGradGradGradGradGradGradGrad

 Leave Link  103 at Wed Jan  6 21:14:16 2021, MaxMem=    33554432 cpu:         0.0
 (Enter /apps/applications/gaussian/G09.D01/2/default/g09/l202.exe)
 ---------------------------------------------------------------------------------------------------
                            Z-MATRIX (ANGSTROMS AND DEGREES)
   CD    Cent   Atom    N1       Length/X        N2       Alpha/Y        N3        Beta/Z          J
 ---------------------------------------------------------------------------------------------------
      1      1  C        0  -0.846574          0.945975          0.217754
      2      2  C        0  -0.105764         -0.252337         -0.053682
      3      3  H        0  -0.431384          1.549477          1.039890
      4      4  H        0  -1.897104          0.707873          0.466765
      5      5  H        0  -0.886517          1.596501         -0.675476
      6      6  C        0   1.089527         -0.866615          0.202215
      7      7  H        0   1.808361         -0.935387          0.991339
      8      8  O        0   1.235954         -1.595112         -0.905809
      9      9  H        0   0.033502         -1.150375         -1.282995
 ---------------------------------------------------------------------------------------------------
                         Z-Matrix orientation:                         
 ---------------------------------------------------------------------
 Center     Atomic      Atomic             Coordinates (Angstroms)
 Number     Number       Type             X           Y           Z
 ---------------------------------------------------------------------
      1          6           0       -0.846574    0.945975    0.217754
      2          6           0       -0.105764   -0.252337   -0.053682
      3          1           0       -0.431384    1.549477    1.039890
      4          1           0       -1.897104    0.707873    0.466765
      5          1           0       -0.886517    1.596501   -0.675476
      6          6           0        1.089527   -0.866615    0.202215
      7          1           0        1.808361   -0.935387    0.991339
      8          8           0        1.235954   -1.595112   -0.905809
      9          1           0        0.033502   -1.150375   -1.282995
 ---------------------------------------------------------------------
                    Distance matrix (angstroms):
                    1          2          3          4          5
     1  C    0.000000
     2  C    1.434723   0.000000
     3  H    1.101138   2.132713   0.000000
     4  H    1.105582   2.098039   1.784686   0.000000
     5  H    1.105730   2.101048   1.775342   1.765123   0.000000
     6  C    2.652209   1.368043   2.975293   3.386585   3.277504
     7  H    3.344644   2.285280   3.345650   4.087292   4.055996
     8  O    3.472239   2.080715   4.056378   4.123561   3.839834
     9  H    2.724237   1.528751   3.591813   3.200311   2.959872
                    6          7          8          9
     6  C    0.000000
     7  H    1.069658   0.000000
     8  O    1.334117   2.088554   0.000000
     9  H    1.844332   2.892913   1.336395   0.000000
 Stoichiometry    C3H5O(2)
 Framework group  C1[X(C3H5O)]
 Deg. of freedom    21
 Full point group                 C1      NOp   1
 Largest Abelian subgroup         C1      NOp   1
 Largest concise Abelian subgroup C1      NOp   1
                         Standard orientation:                         
 ---------------------------------------------------------------------
 Center     Atomic      Atomic             Coordinates (Angstroms)
 Number     Number       Type             X           Y           Z
 ---------------------------------------------------------------------
      1          6           0        1.795167   -0.050752    0.062127
      2          6           0        0.383369   -0.099716   -0.188590
      3          1           0        2.163051    0.948333    0.343190
      4          1           0        2.361604   -0.384788   -0.826625
      5          1           0        2.075623   -0.742248    0.878102
      6          6           0       -0.771413    0.613167   -0.015915
      7          1           0       -1.094373    1.632686    0.005226
      8          8           0       -1.661770   -0.376045    0.076780
      9          1           0       -0.654485   -1.221817   -0.159859
 ---------------------------------------------------------------------
 Rotational constants (GHZ):     33.9633710      4.6004824      4.1978224
 Leave Link  202 at Wed Jan  6 21:14:16 2021, MaxMem=    33554432 cpu:         0.0
 (Enter /apps/applications/gaussian/G09.D01/2/default/g09/l301.exe)
 Standard basis: 3-21G (6D, 7F)
 Ernie: Thresh=  0.10000D-02 Tol=  0.10000D-05 Strict=F.
 There are    46 symmetry adapted cartesian basis functions of A   symmetry.
 There are    46 symmetry adapted basis functions of A   symmetry.
    46 basis functions,    75 primitive gaussians,    46 cartesian basis functions
    16 alpha electrons       15 beta electrons
       nuclear repulsion energy       109.6870127135 Hartrees.
 IExCor=  402 DFT=T Ex+Corr=B3LYP ExCW=0 ScaHFX=  0.200000
 ScaDFX=  0.800000  0.720000  1.000000  0.810000 ScalE2=  1.000000  1.000000
 IRadAn=      0 IRanWt=     -1 IRanGd=            0 ICorTp=0 IEmpDi=  4
 NAtoms=    9 NActive=    9 NUniq=    9 SFac= 1.00D+00 NAtFMM=   60 NAOKFM=F Big=F
 Integral buffers will be    131072 words long.
 Raffenetti 2 integral format.
 Two-electron integral symmetry is turned on.
 Leave Link  301 at Wed Jan  6 21:14:16 2021, MaxMem=    33554432 cpu:         0.1
 (Enter /apps/applications/gaussian/G09.D01/2/default/g09/l302.exe)
 NPDir=0 NMtPBC=     1 NCelOv=     1 NCel=       1 NClECP=     1 NCelD=      1
         NCelK=      1 NCelE2=     1 NClLst=     1 CellRange=     0.0.
 One-electron integrals computed using PRISM.
 NBasis=    46 RedAO= T EigKep=  6.51D-03  NBF=    46
 NBsUse=    46 1.00D-06 EigRej= -1.00D+00 NBFU=    46
 Precomputing XC quadrature grid using
 IXCGrd= 4 IRadAn=           0 IRanWt=          -1 IRanGd=           0 AccXCQ= 0.00D+00.
 Generated NRdTot=       0 NPtTot=           0 NUsed=           0 NTot=          32
 NSgBfM=    46    46    46    46    46 MxSgAt=     9 MxSgA2=     9.
 Leave Link  302 at Wed Jan  6 21:14:16 2021, MaxMem=    33554432 cpu:         0.2
 (Enter /apps/applications/gaussian/G09.D01/2/default/g09/l303.exe)
 DipDrv:  MaxL=1.
 Leave Link  303 at Wed Jan  6 21:14:16 2021, MaxMem=    33554432 cpu:         0.1
 (Enter /apps/applications/gaussian/G09.D01/2/default/g09/l401.exe)
 ExpMin= 1.83D-01 ExpMax= 3.22D+02 ExpMxC= 3.22D+02 IAcc=1 IRadAn=         1 AccDes= 0.00D+00
 Harris functional with IExCor=  402 and IRadAn=       1 diagonalized for initial guess.
 HarFok:  IExCor=  402 AccDes= 0.00D+00 IRadAn=         1 IDoV= 1 UseB2=F ITyADJ=14
 ICtDFT=  3500011 ScaDFX=  1.000000  1.000000  1.000000  1.000000
 FoFCou: FMM=F IPFlag=           0 FMFlag=      100000 FMFlg1=           0
         NFxFlg=           0 DoJE=T BraDBF=F KetDBF=T FulRan=T
         wScrn=  0.000000 ICntrl=     500 IOpCl=  0 I1Cent=   200000004 NGrid=           0
         NMat0=    1 NMatS0=      1 NMatT0=    0 NMatD0=    1 NMtDS0=    0 NMtDT0=    0
 Petite list used in FoFCou.
 Harris En= -191.309499016000    
 JPrj=0 DoOrth=F DoCkMO=F.
 Initial guess <Sx>= 0.0000 <Sy>= 0.0000 <Sz>= 0.5000 <S**2>= 0.7500 S= 0.5000
 Leave Link  401 at Wed Jan  6 21:14:16 2021, MaxMem=    33554432 cpu:         0.2
 (Enter /apps/applications/gaussian/G09.D01/2/default/g09/l508.exe)
 Direct SCF.
 Tight linear equation convergence will be used.
 UB3LYP wavefunction.
 Quadratic Convergence SCF Method.
 Line search only if initial step raises energy.
 Integral symmetry usage will be decided dynamically.
 ReadGW:  IGet=1 IStart=         402 Next=         402 LGW=           0.
 Keep R1 and R2 ints in memory in canonical form, NReq=2054798.
 FoFCou: FMM=F IPFlag=           0 FMFlag=           0 FMFlg1=           0
         NFxFlg=           0 DoJE=F BraDBF=F KetDBF=F FulRan=T
         wScrn=  0.000000 ICntrl=     600 IOpCl=  0 I1Cent=           0 NGrid=           0
         NMat0=    1 NMatS0=   1081 NMatT0=    0 NMatD0=    1 NMtDS0=    0 NMtDT0=    0
 Symmetry not used in FoFCou.
 Iteration   1 EE= -191.234709475552                                    Grad=4.022D-01 Max rot=    4.0026 deg.
 Gradient too large for Newton-Raphson -- use scaled steepest descent instead.
 Alpha Gap=     0.199 HL deriv= 5.36D-02
  Beta Gap=     0.094 HL deriv= 2.84D-02
     ILin= 1 X=0.000D+00 Y=-1.912347094756D+02 DE= 0.00D+00 F= -3.52D-01
     ILin= 2 X=3.000D-01 Y=-1.913039998088D+02 DE=-6.93D-02 F= -1.10D-01
     ILin= 3 X=5.000D-01 Y=-1.913097801722D+02 DE=-7.51D-02 F=  5.16D-02
     Accept linear search using points  2 and  3.
     An  expanding polynomial of degree  3 produced  0.3925
 Iteration   2 EE= -191.310680173907     Delta-E=       -0.075970698355 Grad=1.030D-01 Max rot=    1.1610 deg.
 Gradient too large for Newton-Raphson -- use scaled steepest descent instead.
 Alpha Gap=     0.230 HL deriv= 3.09D-02
  Beta Gap=     0.104 HL deriv= 8.35D-03
     ILin= 1 X=0.000D+00 Y=-1.913106801739D+02 DE= 0.00D+00 F= -1.66D-02
     ILin= 2 X=3.000D-01 Y=-1.913145323771D+02 DE=-3.85D-03 F= -9.09D-03
     ILin= 3 X=7.000D-01 Y=-1.913161697482D+02 DE=-5.49D-03 F=  8.95D-04
     Accept linear search using points  2 and  3.
     An  expanding polynomial of degree  3 produced  0.5242
 Iteration   3 EE= -191.315941982974     Delta-E=       -0.005261809067 Grad=4.344D-02 Max rot=    0.5955 deg.
 Gradient too large for Newton-Raphson -- use scaled steepest descent instead.
 Alpha Gap=     0.228 HL deriv= 7.93D-03
  Beta Gap=     0.104 HL deriv= 7.81D-03
     ILin= 1 X=0.000D+00 Y=-1.913159419830D+02 DE= 0.00D+00 F= -2.78D-03
     ILin= 2 X=5.000D-01 Y=-1.913169142511D+02 DE=-9.72D-04 F= -1.11D-03
     ILin= 3 X=9.000D-01 Y=-1.913170897063D+02 DE=-1.15D-03 F=  2.32D-04
     Accept linear search using points  2 and  3.
     An  expanding polynomial of degree  3 produced  0.7160
 Iteration   4 EE= -191.317075589346     Delta-E=       -0.001133606372 Grad=1.903D-02 Max rot=    0.2544 deg.
 Gradient too large for Newton-Raphson -- use scaled steepest descent instead.
 Alpha Gap=     0.232 HL deriv= 1.40D-02
  Beta Gap=     0.107 HL deriv= 2.70D-03
     ILin= 1 X=0.000D+00 Y=-1.913170755893D+02 DE= 0.00D+00 F= -9.78D-04
     ILin= 2 X=6.000D-01 Y=-1.913172891304D+02 DE=-2.14D-04 F=  2.66D-04
     Accept linear search using points  1 and  2.
     An  expanding polynomial of degree  2 produced  0.3788
 Iteration   5 EE= -191.317297225930     Delta-E=       -0.000221636584 Grad=1.082D-02 Max rot=    0.1331 deg.
 Gradient too large for Newton-Raphson -- use scaled steepest descent instead.
 Alpha Gap=     0.232 HL deriv= 2.53D-03
  Beta Gap=     0.106 HL deriv= 1.26D-03
     ILin= 1 X=0.000D+00 Y=-1.913172972259D+02 DE= 0.00D+00 F= -2.78D-04
     ILin= 2 X=5.000D-01 Y=-1.913173971119D+02 DE=-9.99D-05 F= -1.21D-04
     ILin= 3 X=1.000D+00 Y=-1.913174187448D+02 DE=-1.22D-04 F=  3.49D-05
     Accept linear search using points  2 and  3.
     An  expanding polynomial of degree  3 produced  0.7895
 Iteration   6 EE= -191.317419165178     Delta-E=       -0.000121939249 Grad=7.750D-03 Max rot=    0.1530 deg.
 QCNR:  CnvC1=3.07D-09 CnvC2=3.07D-08
 LinEq1:  Iter=  0 NonCon=     1 RMS=6.48D-04 Max=1.32D-02 NDo=     1
 AX will form     1 AO Fock derivatives at one time.
 LinEq1:  Iter=  1 NonCon=     1 RMS=7.87D-04 Max=9.08D-03 NDo=     1
 LinEq1:  Iter=  2 NonCon=     1 RMS=9.32D-05 Max=9.02D-04 NDo=     1
 LinEq1:  Iter=  3 NonCon=     1 RMS=8.75D-05 Max=1.16D-03 NDo=     1
 LinEq1:  Iter=  4 NonCon=     1 RMS=3.50D-05 Max=4.11D-04 NDo=     1
 LinEq1:  Iter=  5 NonCon=     1 RMS=1.81D-05 Max=1.82D-04 NDo=     1
 LinEq1:  Iter=  6 NonCon=     1 RMS=7.78D-06 Max=1.11D-04 NDo=     1
 LinEq1:  Iter=  7 NonCon=     1 RMS=2.93D-06 Max=5.60D-05 NDo=     1
 LinEq1:  Iter=  8 NonCon=     1 RMS=1.83D-06 Max=2.35D-05 NDo=     1
 LinEq1:  Iter=  9 NonCon=     1 RMS=8.77D-07 Max=8.89D-06 NDo=     1
 LinEq1:  Iter= 10 NonCon=     1 RMS=2.75D-07 Max=2.96D-06 NDo=     1
 LinEq1:  Iter= 11 NonCon=     1 RMS=6.82D-08 Max=4.78D-07 NDo=     1
 LinEq1:  Iter= 12 NonCon=     1 RMS=1.76D-08 Max=1.19D-07 NDo=     1
 LinEq1:  Iter= 13 NonCon=     1 RMS=4.66D-09 Max=3.45D-08 NDo=     1
 LinEq1:  Iter= 14 NonCon=     0 RMS=1.03D-09 Max=6.41D-09 NDo=     1
 Linear equations converged to 3.074D-09 3.074D-08 after    14 iterations.
 Angle between quadratic step and gradient=  54.85 degrees.
     ILin= 1 X=0.000D+00 Y=-1.913174191652D+02 DE= 0.00D+00 F= -1.72D-04
     ILin= 2 X=1.000D+00 Y=-1.913175052124D+02 DE=-8.60D-05 F=  2.60D-07
     Accept linear search using points  1 and  2.
     An  expanding polynomial of degree  2 produced  0.9985
     Minimum is close to point  2 DX= -1.51D-03 DF= -1.96D-10 DXR=  1.51D-03 DFR=  2.28D-06 which will be used.
 Iteration   7 EE= -191.317505212422     Delta-E=       -0.000086047243 Grad=4.570D-05 Max rot=    0.0012 deg.
 QCNR:  CnvC1=4.57D-10 CnvC2=4.57D-09
 LinEq1:  Iter=  0 NonCon=     1 RMS=3.94D-06 Max=5.84D-05 NDo=     1
 LinEq1:  Iter=  1 NonCon=     1 RMS=3.90D-06 Max=6.86D-05 NDo=     1
 LinEq1:  Iter=  2 NonCon=     1 RMS=2.64D-06 Max=3.02D-05 NDo=     1
 LinEq1:  Iter=  3 NonCon=     1 RMS=2.62D-06 Max=4.88D-05 NDo=     1
 LinEq1:  Iter=  4 NonCon=     1 RMS=1.17D-06 Max=1.54D-05 NDo=     1
 LinEq1:  Iter=  5 NonCon=     1 RMS=8.46D-07 Max=1.04D-05 NDo=     1
 LinEq1:  Iter=  6 NonCon=     1 RMS=2.65D-07 Max=2.30D-06 NDo=     1
 LinEq1:  Iter=  7 NonCon=     1 RMS=1.05D-07 Max=1.42D-06 NDo=     1
 LinEq1:  Iter=  8 NonCon=     1 RMS=5.11D-08 Max=3.62D-07 NDo=     1
 LinEq1:  Iter=  9 NonCon=     1 RMS=1.93D-08 Max=1.33D-07 NDo=     1
 LinEq1:  Iter= 10 NonCon=     1 RMS=5.13D-09 Max=5.72D-08 NDo=     1
 LinEq1:  Iter= 11 NonCon=     1 RMS=1.24D-09 Max=1.04D-08 NDo=     1
 LinEq1:  Iter= 12 NonCon=     1 RMS=3.42D-10 Max=4.58D-09 NDo=     1
 LinEq1:  Iter= 13 NonCon=     0 RMS=8.98D-11 Max=8.05D-10 NDo=     1
 Linear equations converged to 4.570D-10 4.570D-09 after    13 iterations.
 Angle between quadratic step and gradient=  52.10 degrees.
     ILin= 1 X=0.000D+00 Y=-1.913175052124D+02 DE= 0.00D+00 F= -1.39D-08
     ILin= 2 X=1.000D+00 Y=-1.913175052194D+02 DE=-6.97D-09
 Iteration   8 EE= -191.317505219390     Delta-E=       -0.000000006969 Grad=1.158D-08 Max rot=    0.0000 deg.
 Rotation gradient small -- convergence achieved.
 SCF Done:  E(UB3LYP) =  -191.317505219     a.u. after    8 cycles
            Convg  =    0.1158D-07                    44 Fock formations.
              S**2 =  0.7605                  -V/T =  2.0078
 <Sx>= 0.0000 <Sy>= 0.0000 <Sz>= 0.5000 <S**2>= 0.7605 S= 0.5052
 <L.S>= 0.000000000000E+00
 Annihilation of the first spin contaminant:
 S**2 before annihilation     0.7605,   after     0.7500
 Leave Link  508 at Wed Jan  6 21:14:46 2021, MaxMem=    33554432 cpu:        29.8
 (Enter /apps/applications/gaussian/G09.D01/2/default/g09/l801.exe)
 DoSCS=F DFT=T ScalE2(SS,OS)=  1.000000  1.000000
 Range of M.O.s used for correlation:     1    46
 NBasis=    46 NAE=    16 NBE=    15 NFC=     0 NFV=     0
 NROrb=     46 NOA=    16 NOB=    15 NVA=    30 NVB=    31
 Leave Link  801 at Wed Jan  6 21:14:46 2021, MaxMem=    33554432 cpu:         0.1
 (Enter /apps/applications/gaussian/G09.D01/2/default/g09/l1101.exe)
 Using compressed storage, NAtomX=     9.
 Will process     10 centers per pass.
 Leave Link 1101 at Wed Jan  6 21:14:47 2021, MaxMem=    33554432 cpu:         0.1
 (Enter /apps/applications/gaussian/G09.D01/2/default/g09/l1102.exe)
 Symmetrizing basis deriv contribution to polar:
 IMax=3 JMax=2 DiffMx= 0.00D+00
 Leave Link 1102 at Wed Jan  6 21:14:47 2021, MaxMem=    33554432 cpu:         0.0
 (Enter /apps/applications/gaussian/G09.D01/2/default/g09/l1110.exe)
 Forming Gx(P) for the SCF density, NAtomX=     9.
 Integral derivatives from FoFJK, PRISM(SPDF).
 Do as many integral derivatives as possible in FoFJK.
 G2DrvN: MDV=      33554256.
 G2DrvN: will do    10 centers at a time, making    1 passes.
 Calling FoFCou, ICntrl=  3107 FMM=F I1Cent=   0 AccDes= 0.00D+00.
 FoFJK:  IHMeth= 1 ICntrl=    3107 DoSepK=F KAlg= 0 I1Cent=   0 FoldK=F
 IRaf=         0 NMat=   1 IRICut=       1 DoRegI=T DoRafI=F ISym2E= 0.
 FoFCou: FMM=F IPFlag=           0 FMFlag=      100000 FMFlg1=           0
         NFxFlg=           0 DoJE=F BraDBF=F KetDBF=F FulRan=T
         wScrn=  0.000000 ICntrl=    3107 IOpCl=  1 I1Cent=           0 NGrid=           0
         NMat0=    1 NMatS0=      1 NMatT0=    0 NMatD0=    1 NMtDS0=    0 NMtDT0=    0
 Symmetry not used in FoFCou.
 End of G2Drv F.D. properties file   721 does not exist.
 End of G2Drv F.D. properties file   722 does not exist.
 End of G2Drv F.D. properties file   788 does not exist.
 Leave Link 1110 at Wed Jan  6 21:14:57 2021, MaxMem=    33554432 cpu:         9.9
 (Enter /apps/applications/gaussian/G09.D01/2/default/g09/l1002.exe)
 Minotr:  UHF open shell wavefunction.
          IDoAtm=111111111
          Direct CPHF calculation.
          Differentiating once with respect to electric field.
                with respect to dipole field.
          Differentiating once with respect to nuclear coordinates.
          Requested convergence is 1.0D-08 RMS, and 1.0D-07 maximum.
          Secondary convergence is 1.0D-12 RMS, and 1.0D-12 maximum.
          NewPWx=T KeepS1=F KeepF1=F KeepIn=T MapXYZ=F SortEE=F KeepMc=T.
          MDV=      33554246 using IRadAn=       2.
 Generate precomputed XC quadrature information.
 Keep R1 and R2 ints in memory in canonical form, NReq=2035813.
 FoFCou: FMM=F IPFlag=           0 FMFlag=           0 FMFlg1=           0
         NFxFlg=           0 DoJE=F BraDBF=F KetDBF=F FulRan=T
         wScrn=  0.000000 ICntrl=     600 IOpCl=  0 I1Cent=           0 NGrid=           0
         NMat0=    1 NMatS0=   1081 NMatT0=    0 NMatD0=    1 NMtDS0=    0 NMtDT0=    0
 Symmetry not used in FoFCou.
          Solving linear equations simultaneously, MaxMat=       0.
          There are    30 degrees of freedom in the 1st order CPHF.  IDoFFX=6 NUNeed=     3.
     27 vectors produced by pass  0 Test12= 3.15D-15 3.33D-09 XBig12= 1.46D+02 5.39D+00.
 AX will form    27 AO Fock derivatives at one time.
     27 vectors produced by pass  1 Test12= 3.15D-15 3.33D-09 XBig12= 4.58D+01 1.55D+00.
     27 vectors produced by pass  2 Test12= 3.15D-15 3.33D-09 XBig12= 5.75D-01 2.40D-01.
     27 vectors produced by pass  3 Test12= 3.15D-15 3.33D-09 XBig12= 3.73D-03 1.70D-02.
     27 vectors produced by pass  4 Test12= 3.15D-15 3.33D-09 XBig12= 2.58D-05 9.80D-04.
     27 vectors produced by pass  5 Test12= 3.15D-15 3.33D-09 XBig12= 9.00D-08 4.52D-05.
      7 vectors produced by pass  6 Test12= 3.15D-15 3.33D-09 XBig12= 2.21D-10 1.91D-06.
      2 vectors produced by pass  7 Test12= 3.15D-15 3.33D-09 XBig12= 3.79D-13 9.40D-08.
      1 vectors produced by pass  8 Test12= 3.15D-15 3.33D-09 XBig12= 7.18D-16 4.19D-09.
 InvSVY:  IOpt=1 It=  1 EMax= 1.07D-14
 Solved reduced A of dimension   172 with    30 vectors.
 FullF1:  Do perturbations    1 to     3.
 Isotropic polarizability for W=    0.000000       34.53 Bohr**3.
 End of Minotr F.D. properties file   721 does not exist.
 End of Minotr F.D. properties file   722 does not exist.
 End of Minotr F.D. properties file   788 does not exist.
 Leave Link 1002 at Wed Jan  6 21:15:07 2021, MaxMem=    33554432 cpu:         9.9
 (Enter /apps/applications/gaussian/G09.D01/2/default/g09/l601.exe)
 Copying SCF densities to generalized density rwf, IOpCl= 1 IROHF=0.

 **********************************************************************

            Population analysis using the SCF density.

 **********************************************************************

 Orbital symmetries:
 Alpha Orbitals:
       Occupied  (A) (A) (A) (A) (A) (A) (A) (A) (A) (A) (A) (A)
                 (A) (A) (A) (A)
       Virtual   (A) (A) (A) (A) (A) (A) (A) (A) (A) (A) (A) (A)
                 (A) (A) (A) (A) (A) (A) (A) (A) (A) (A) (A) (A)
                 (A) (A) (A) (A) (A) (A)
 Beta  Orbitals:
       Occupied  (A) (A) (A) (A) (A) (A) (A) (A) (A) (A) (A) (A)
                 (A) (A) (A)
       Virtual   (A) (A) (A) (A) (A) (A) (A) (A) (A) (A) (A) (A)
                 (A) (A) (A) (A) (A) (A) (A) (A) (A) (A) (A) (A)
                 (A) (A) (A) (A) (A) (A) (A)
 The electronic state is 2-A.
 Alpha  occ. eigenvalues --  -19.06141 -10.19423 -10.13897 -10.13183  -1.05821
 Alpha  occ. eigenvalues --   -0.78367  -0.67970  -0.58727  -0.47649  -0.44018
 Alpha  occ. eigenvalues --   -0.43455  -0.42580  -0.39322  -0.34948  -0.22177
 Alpha  occ. eigenvalues --   -0.21432
 Alpha virt. eigenvalues --    0.00859   0.08458   0.13794   0.15146   0.18249
 Alpha virt. eigenvalues --    0.19416   0.25951   0.28725   0.43868   0.64018
 Alpha virt. eigenvalues --    0.69399   0.71426   0.76314   0.79133   0.83174
 Alpha virt. eigenvalues --    0.83880   0.90302   0.96131   0.97364   1.02156
 Alpha virt. eigenvalues --    1.03601   1.06489   1.24833   1.33981   1.45624
 Alpha virt. eigenvalues --    1.54402   1.66880   1.79848   1.95559   2.97859
  Beta  occ. eigenvalues --  -19.04836 -10.19432 -10.13246 -10.13133  -1.03110
  Beta  occ. eigenvalues --   -0.77109  -0.66730  -0.57813  -0.46593  -0.43207
  Beta  occ. eigenvalues --   -0.42535  -0.41847  -0.35940  -0.32727  -0.20140
  Beta virt. eigenvalues --   -0.09812   0.03513   0.09079   0.13996   0.15384
  Beta virt. eigenvalues --    0.18559   0.19989   0.26955   0.29741   0.44442
  Beta virt. eigenvalues --    0.64301   0.70677   0.71768   0.76925   0.79697
  Beta virt. eigenvalues --    0.84048   0.84960   0.90568   0.96441   0.97869
  Beta virt. eigenvalues --    1.02550   1.03858   1.07184   1.25501   1.34687
  Beta virt. eigenvalues --    1.49595   1.55520   1.69026   1.80813   1.96049
  Beta virt. eigenvalues --    3.00380
          Condensed to atoms (all electrons):
               1          2          3          4          5          6
     1  C    5.451539   0.224821   0.346188   0.358623   0.356015  -0.051831
     2  C    0.224821   5.655709  -0.041003  -0.048384  -0.040242   0.382180
     3  H    0.346188  -0.041003   0.559415  -0.030421  -0.023336  -0.009461
     4  H    0.358623  -0.048384  -0.030421   0.518602  -0.027436   0.002987
     5  H    0.356015  -0.040242  -0.023336  -0.027436   0.506316   0.001044
     6  C   -0.051831   0.382180  -0.009461   0.002987   0.001044   5.029008
     7  H    0.001053  -0.035490   0.000356  -0.000005  -0.000036   0.357351
     8  O    0.005572  -0.182330  -0.000125   0.000017   0.000002   0.269918
     9  H   -0.005031   0.231636   0.001129  -0.000712  -0.001100  -0.116053
               7          8          9
     1  C    0.001053   0.005572  -0.005031
     2  C   -0.035490  -0.182330   0.231636
     3  H    0.000356  -0.000125   0.001129
     4  H   -0.000005   0.000017  -0.000712
     5  H   -0.000036   0.000002  -0.001100
     6  C    0.357351   0.269918  -0.116053
     7  H    0.483246  -0.034812   0.007646
     8  O   -0.034812   8.283654   0.088135
     9  H    0.007646   0.088135   0.538777
          Atomic-Atomic Spin Densities.
               1          2          3          4          5          6
     1  C   -0.021618  -0.036796  -0.001396  -0.003248   0.017449   0.003823
     2  C   -0.036796   0.604728  -0.000228  -0.004090  -0.018295   0.008418
     3  H   -0.001396  -0.000228   0.013144   0.004443  -0.005713  -0.000637
     4  H   -0.003248  -0.004090   0.004443   0.034954  -0.008433  -0.000925
     5  H    0.017449  -0.018295  -0.005713  -0.008433   0.047869   0.000434
     6  C    0.003823   0.008418  -0.000637  -0.000925   0.000434   0.009559
     7  H   -0.000003  -0.000028  -0.000007   0.000001  -0.000004   0.003675
     8  O    0.001293  -0.060956  -0.000044  -0.000051   0.000198  -0.042791
     9  H   -0.002244   0.030475   0.000060   0.000391  -0.000682  -0.002592
               7          8          9
     1  C   -0.000003   0.001293  -0.002244
     2  C   -0.000028  -0.060956   0.030475
     3  H   -0.000007  -0.000044   0.000060
     4  H    0.000001  -0.000051   0.000391
     5  H   -0.000004   0.000198  -0.000682
     6  C    0.003675  -0.042791  -0.002592
     7  H   -0.005067   0.000246  -0.000548
     8  O    0.000246   0.627683  -0.020900
     9  H   -0.000548  -0.020900  -0.031844
 Mulliken charges and spin densities:
               1          2
     1  C   -0.686950  -0.042740
     2  C   -0.146898   0.523228
     3  H    0.197257   0.009621
     4  H    0.226728   0.023042
     5  H    0.228773   0.032825
     6  C    0.134857  -0.021036
     7  H    0.220691  -0.001733
     8  O   -0.430031   0.504677
     9  H    0.255573  -0.027884
 Sum of Mulliken charges =   0.00000   1.00000
 Mulliken charges and spin densities with hydrogens summed into heavy atoms:
               1          2
     1  C   -0.034192   0.022747
     2  C   -0.146898   0.523228
     6  C    0.355548  -0.022769
     8  O   -0.174458   0.476793
 APT charges:
               1
     1  C    0.018396
     2  C   -0.087901
     3  H   -0.036370
     4  H    0.011568
     5  H    0.039029
     6  C    0.117683
     7  H    0.096736
     8  O   -0.342959
     9  H    0.183817
 Sum of APT charges =   0.00000
 APT charges with hydrogens summed into heavy atoms:
               1
     1  C    0.032624
     2  C   -0.087901
     6  C    0.214420
     8  O   -0.159142
 Electronic spatial extent (au):  <R**2>=            315.9650
 Charge=              0.0000 electrons
 Dipole moment (field-independent basis, Debye):
    X=              1.7110    Y=              1.1443    Z=              0.3176  Tot=              2.0828
 Quadrupole moment (field-independent basis, Debye-Ang):
   XX=            -25.8427   YY=            -22.2753   ZZ=            -25.4052
   XY=             -2.1187   XZ=              0.6911   YZ=             -0.3732
 Traceless Quadrupole moment (field-independent basis, Debye-Ang):
   XX=             -1.3350   YY=              2.2325   ZZ=             -0.8975
   XY=             -2.1187   XZ=              0.6911   YZ=             -0.3732
 Octapole moment (field-independent basis, Debye-Ang**2):
  XXX=              4.1574  YYY=              1.2426  ZZZ=              1.3278  XYY=             -4.7966
  XXY=              2.0303  XXZ=             -1.1201  XZZ=             -1.2962  YZZ=             -0.9220
  YYZ=              0.8087  XYZ=             -0.4063
 Hexadecapole moment (field-independent basis, Debye-Ang**3):
 XXXX=           -311.7644 YYYY=            -55.8717 ZZZZ=            -31.8839 XXXY=             -6.0241
 XXXZ=              0.9434 YYYX=              0.6178 YYYZ=             -0.5448 ZZZX=             -0.6419
 ZZZY=             -0.9392 XXYY=            -56.6437 XXZZ=            -53.1550 YYZZ=            -16.0240
 XXYZ=              0.3017 YYXZ=              1.0829 ZZXY=             -0.4748
 N-N= 1.096870127135D+02 E-N=-6.656427684487D+02  KE= 1.898447024912D+02
  Exact polarizability:  50.453  -1.684  34.253  -1.456   1.026  18.880
 Approx polarizability:  89.668   0.276  50.691  -7.404   1.703  24.584
                          Isotropic Fermi Contact Couplings
        Atom                 a.u.       MegaHertz       Gauss      10(-4) cm-1
     1  C(13)             -0.00668      -7.51413      -2.68123      -2.50645
     2  C(13)              0.08734      98.18434      35.03461      32.75077
     3  H(1)               0.00341      15.23310       5.43555       5.08121
     4  H(1)               0.00832      37.20758      13.27659      12.41111
     5  H(1)               0.01540      68.81661      24.55548      22.95475
     6  C(13)             -0.01455     -16.35983      -5.83759      -5.45705
     7  H(1)              -0.00047      -2.09671      -0.74816      -0.69939
     8  O(17)              0.08181     -49.59534     -17.69685     -16.54322
     9  H(1)              -0.00887     -39.66949     -14.15506     -13.23232
 --------------------------------------------------------
       Center         ----  Spin Dipole Couplings  ----
                      3XX-RR        3YY-RR        3ZZ-RR
 --------------------------------------------------------
     1   Atom        0.029728     -0.015575     -0.014152
     2   Atom       -0.163678     -0.019927      0.183605
     3   Atom        0.006707     -0.001791     -0.004916
     4   Atom        0.008908     -0.005246     -0.003662
     5   Atom        0.009969     -0.006309     -0.003660
     6   Atom       -0.010998     -0.006798      0.017796
     7   Atom       -0.004138      0.014217     -0.010078
     8   Atom        0.301975     -0.674726      0.372750
     9   Atom        0.034151      0.005403     -0.039554
 --------------------------------------------------------
                        XY            XZ            YZ
 --------------------------------------------------------
     1   Atom        0.012630     -0.008757     -0.006880
     2   Atom        0.139402     -0.198593     -0.322270
     3   Atom        0.006214      0.002264      0.002125
     4   Atom       -0.001536     -0.004296      0.001315
     5   Atom       -0.005722      0.008721     -0.002261
     6   Atom        0.002807      0.019789     -0.003664
     7   Atom       -0.002856     -0.002324      0.000537
     8   Atom       -0.527612      1.256131     -0.534440
     9   Atom       -0.005181     -0.003889      0.021747
 --------------------------------------------------------


 ---------------------------------------------------------------------------------
              Anisotropic Spin Dipole Couplings in Principal Axis System
 ---------------------------------------------------------------------------------

       Atom             a.u.   MegaHertz   Gauss  10(-4) cm-1        Axes

              Baa    -0.0221    -2.969    -1.059    -0.990 -0.0965  0.8034  0.5875
     1 C(13)  Bbb    -0.0130    -1.747    -0.623    -0.583  0.3183 -0.5344  0.7830
              Bcc     0.0351     4.715     1.683     1.573  0.9431  0.2626 -0.2042
 
              Baa    -0.2590   -34.752   -12.400   -11.592  0.4917  0.5840  0.6459
     2 C(13)  Bbb    -0.2485   -33.347   -11.899   -11.123  0.8017 -0.5931 -0.0739
              Bcc     0.5075    68.099    24.299    22.715 -0.3399 -0.5542  0.7598
 
              Baa    -0.0061    -3.264    -1.165    -1.089  0.1571 -0.6079  0.7783
     3 H(1)   Bbb    -0.0044    -2.374    -0.847    -0.792 -0.4792  0.6422  0.5983
              Bcc     0.0106     5.638     2.012     1.881  0.8635  0.4670  0.1904
 
              Baa    -0.0061    -3.233    -1.154    -1.078 -0.0899  0.7966 -0.5979
     4 H(1)   Bbb    -0.0044    -2.346    -0.837    -0.782  0.3086  0.5930  0.7437
              Bcc     0.0105     5.579     1.991     1.861  0.9469 -0.1177 -0.2991
 
              Baa    -0.0084    -4.492    -1.603    -1.498  0.4688  0.7141 -0.5200
     5 H(1)   Bbb    -0.0075    -4.000    -1.427    -1.334 -0.1599  0.6475  0.7451
              Bcc     0.0159     8.492     3.030     2.833  0.8687 -0.2661  0.4177
 
              Baa    -0.0222    -2.980    -1.063    -0.994  0.8552 -0.2622 -0.4471
     6 C(13)  Bbb    -0.0058    -0.776    -0.277    -0.259  0.2596  0.9633 -0.0682
              Bcc     0.0280     3.755     1.340     1.253  0.4486 -0.0577  0.8919
 
              Baa    -0.0109    -5.809    -2.073    -1.938  0.3322  0.0176  0.9430
     7 H(1)   Bbb    -0.0038    -2.025    -0.723    -0.675  0.9305  0.1574 -0.3308
              Bcc     0.0147     7.834     2.795     2.613 -0.1543  0.9874  0.0359
 
              Baa    -0.9208    66.627    23.774    22.224  0.7442  0.2542 -0.6177
     8 O(17)  Bbb    -0.8993    65.071    23.219    21.705  0.0036  0.9232  0.3843
              Bcc     1.8201  -131.698   -46.993   -43.930  0.6679 -0.2882  0.6861
 
              Baa    -0.0484   -25.816    -9.212    -8.611  0.0203 -0.3731  0.9276
     9 H(1)   Bbb     0.0124     6.617     2.361     2.207  0.2761  0.8938  0.3534
              Bcc     0.0360    19.199     6.851     6.404  0.9609 -0.2489 -0.1211
 

 ---------------------------------------------------------------------------------

 No NMR shielding tensors so no spin-rotation constants.
 Leave Link  601 at Wed Jan  6 21:15:07 2021, MaxMem=    33554432 cpu:         0.1
 (Enter /apps/applications/gaussian/G09.D01/2/default/g09/l701.exe)
 Compute integral second derivatives.
 ... and contract with generalized density number  0.
 Leave Link  701 at Wed Jan  6 21:15:07 2021, MaxMem=    33554432 cpu:         0.1
 (Enter /apps/applications/gaussian/G09.D01/2/default/g09/l702.exe)
 L702 exits ... SP integral derivatives will be done elsewhere.
 Leave Link  702 at Wed Jan  6 21:15:07 2021, MaxMem=    33554432 cpu:         0.0
 (Enter /apps/applications/gaussian/G09.D01/2/default/g09/l703.exe)
 Compute integral second derivatives, UseDBF=F ICtDFT=           0.
 Integral derivatives from FoFJK, PRISM(SPDF).
 Calling FoFJK, ICntrl=    100127 FMM=F ISym2X=0 I1Cent= 0 IOpClX= 1 NMat=1 NMatS=1 NMatT=0.
 FoFJK:  IHMeth= 1 ICntrl=  100127 DoSepK=F KAlg= 0 I1Cent=   0 FoldK=F
 IRaf=         0 NMat=   1 IRICut=       1 DoRegI=T DoRafI=F ISym2E= 0.
 FoFCou: FMM=F IPFlag=           0 FMFlag=      100000 FMFlg1=         800
         NFxFlg=           0 DoJE=F BraDBF=F KetDBF=F FulRan=T
         wScrn=  0.000000 ICntrl=  100127 IOpCl=  1 I1Cent=           0 NGrid=           0
         NMat0=    1 NMatS0=      1 NMatT0=    0 NMatD0=    1 NMtDS0=    0 NMtDT0=    0
 Symmetry not used in FoFCou.
 Leave Link  703 at Wed Jan  6 21:15:16 2021, MaxMem=    33554432 cpu:         8.7
 (Enter /apps/applications/gaussian/G09.D01/2/default/g09/l716.exe)
 Dipole        = 6.73174627D-01 4.50204918D-01 1.24943328D-01
 Polarizability= 5.04526625D+01-1.68419046D+00 3.42533759D+01
                -1.45575652D+00 1.02552165D+00 1.88803184D+01
 ***** Axes restored to original set *****
 -------------------------------------------------------------------
 Center     Atomic                   Forces (Hartrees/Bohr)
 Number     Number              X              Y              Z
 -------------------------------------------------------------------
      1        6          -0.010196979    0.027875034    0.016446767
      2        6          -0.006835673   -0.020319719   -0.020145246
      3        1          -0.001641540    0.001910650   -0.000027615
      4        1           0.003375668    0.000800910   -0.001864844
      5        1           0.000551217   -0.002670090    0.001778757
      6        6          -0.030078086    0.006574736   -0.004854580
      7        1           0.004707739    0.005955134    0.005123801
      8        8           0.045941955   -0.039857007   -0.026769976
      9        1          -0.005824301    0.019730352    0.030312937
 -------------------------------------------------------------------
 Cartesian Forces:  Max     0.045941955 RMS     0.018117643
 Force constants in Cartesian coordinates: 
                1             2             3             4             5 
      1  0.507837D+00
      2 -0.131856D-01  0.523308D+00
      3 -0.625982D-02  0.233431D-01  0.485765D+00
      4 -0.940380D-01  0.122565D+00  0.710988D-01  0.389293D+00
      5  0.835530D-01 -0.220413D+00 -0.657908D-01 -0.308121D+00  0.438353D+00
      6  0.405384D-01 -0.249352D-01 -0.312860D-01 -0.886463D-01  0.641662D-01
      7 -0.883414D-01 -0.486430D-01 -0.660134D-01 -0.472491D-03  0.167848D-01
      8 -0.531345D-01 -0.116418D+00 -0.100249D+00  0.191303D-02 -0.285239D-01
      9 -0.711169D-01 -0.948692D-01 -0.184537D+00  0.402658D-02 -0.869923D-02
     10 -0.256747D+00 -0.574015D-01  0.491147D-01 -0.216406D-01  0.720594D-02
     11 -0.528044D-01 -0.586300D-01  0.963616D-02  0.307390D-01  0.280713D-02
     12  0.505871D-01  0.714189D-02 -0.579634D-01  0.222939D-02  0.275791D-02
     13 -0.402379D-01  0.474558D-02 -0.756300D-02 -0.664802D-02  0.153503D-01
     14  0.601558D-02 -0.123974D+00  0.118293D+00 -0.192617D-02 -0.208698D-01
     15 -0.364883D-02  0.108938D+00 -0.201329D+00 -0.599191D-02 -0.781865D-03
     16 -0.277448D-01 -0.199529D-01 -0.287938D-01 -0.212861D+00  0.133506D+00
     17  0.414864D-01  0.597718D-02  0.354755D-01  0.297583D-01 -0.120094D+00
     18  0.206299D-01 -0.102614D-01  0.249933D-01 -0.180841D+00  0.791283D-01
     19 -0.806018D-03 -0.282703D-03 -0.838786D-03 -0.976521D-03 -0.170022D-02
     20  0.467918D-04  0.106505D-02  0.588210D-03  0.231328D-02  0.105159D-01
     21 -0.948808D-04  0.102765D-02  0.263584D-03  0.676316D-02 -0.508485D-02
     22 -0.513117D-02  0.561226D-02 -0.202031D-01  0.293516D-02  0.894358D-01
     23 -0.170201D-02 -0.415190D-02 -0.219126D-02  0.897149D-01 -0.425984D-01
     24 -0.240530D-01 -0.985517D-02 -0.227498D-01  0.163322D+00 -0.725760D-01
     25  0.520851D-02  0.654337D-02  0.945839D-02 -0.555911D-01 -0.360141D-01
     26 -0.102753D-01 -0.676269D-02 -0.191047D-01  0.330442D-01 -0.191766D-01
     27 -0.658206D-02 -0.529223D-03 -0.131568D-01  0.280397D-01  0.688034D-02
                6             7             8             9            10 
      6  0.421884D-01
      7  0.843046D-02  0.938628D-01
      8 -0.204118D-01  0.533841D-01  0.132749D+00
      9 -0.121335D-02  0.789685D-01  0.111535D+00  0.201755D+00
     10  0.369977D-02 -0.127170D-01 -0.370786D-02  0.259276D-02  0.291043D+00
     11 -0.124465D-01 -0.169221D-01 -0.483140D-02  0.532691D-02  0.546025D-01
     12 -0.325507D-02 -0.258048D-01 -0.575831D-02  0.590945D-02 -0.569561D-01
     13 -0.166263D-01 -0.156902D-02  0.805760D-02 -0.119891D-01 -0.745381D-03
     14  0.123890D-01 -0.146807D-02  0.119525D-01 -0.151044D-01 -0.997260D-03
     15  0.477624D-02 -0.710178D-03  0.151229D-01 -0.217204D-01  0.111257D-03
     16 -0.744175D-02  0.741776D-02 -0.685399D-02 -0.235007D-02  0.290304D-04
     17 -0.543710D-01 -0.831554D-02  0.832252D-02  0.407758D-02 -0.102104D-02
     18 -0.121635D+00 -0.360531D-02  0.600225D-02  0.238239D-02  0.106865D-02
     19 -0.109999D-01  0.373827D-04  0.400682D-03  0.258212D-03 -0.825470D-04
     20  0.111634D-01 -0.256453D-03 -0.458236D-03 -0.443650D-03 -0.186820D-04
     21  0.497977D-02 -0.252711D-03  0.972310D-04 -0.410609D-04 -0.896998D-05
     22  0.156809D+00  0.373638D-02  0.997569D-03 -0.501719D-03  0.558163D-03
     23 -0.684554D-01  0.774132D-03 -0.231713D-02 -0.660771D-03  0.111228D-02
     24  0.748784D-01  0.649282D-02 -0.565900D-02 -0.265550D-02  0.346743D-03
     25 -0.857639D-01 -0.195437D-02 -0.105666D-02  0.111686D-03  0.301864D-03
     26  0.929012D-01  0.466221D-02 -0.475491D-03 -0.116237D-02  0.225629D-03
     27  0.305666D-01  0.249462D-02 -0.679250D-03  0.121076D-03  0.311893D-04
               11            12            13            14            15 
     11  0.706806D-01
     12 -0.111956D-01  0.627495D-01
     13 -0.203295D-01  0.278770D-01  0.488155D-01
     14 -0.608414D-02  0.765306D-02 -0.850576D-02  0.142229D+00
     15  0.505628D-02 -0.863162D-02  0.563176D-02 -0.126439D+00  0.226257D+00
     16  0.527479D-02  0.125667D-02  0.101909D-02  0.226527D-02  0.323663D-02
     17 -0.517266D-02 -0.599641D-03 -0.562996D-04 -0.622933D-02 -0.247052D-02
     18 -0.107645D-02 -0.558304D-03  0.914011D-03 -0.249238D-02 -0.248066D-02
     19  0.569672D-04 -0.687773D-04 -0.663486D-04  0.335705D-03  0.163470D-03
     20 -0.281636D-03 -0.198953D-03 -0.146563D-03  0.154995D-03  0.681575D-04
     21  0.955262D-04  0.445989D-04 -0.352003D-04 -0.210549D-03 -0.101220D-03
     22  0.104798D-02  0.603331D-03 -0.588292D-03  0.703737D-02  0.153488D-02
     23 -0.468915D-03 -0.344666D-03  0.494015D-03 -0.169507D-02 -0.233215D-03
     24  0.333117D-02  0.866907D-03  0.145782D-02  0.284629D-02  0.187086D-02
     25 -0.166533D-02  0.276215D-03  0.204074D-04 -0.275666D-02 -0.327079D-03
     26  0.198104D-02  0.544315D-03  0.390596D-03  0.451642D-02  0.739399D-03
     27  0.127250D-02  0.837906D-03  0.333026D-03  0.306483D-02  0.135881D-02
               16            17            18            19            20 
     16  0.541835D+00
     17 -0.120339D+00  0.227849D+00
     18  0.322854D+00  0.254110D-01  0.522027D+00
     19 -0.204424D+00  0.191812D-01 -0.168240D+00  0.196612D+00
     20  0.254161D-01 -0.423710D-01  0.218813D-01 -0.219319D-01  0.320569D-01
     21 -0.164376D+00  0.145452D-01 -0.217547D+00  0.177690D+00 -0.563623D-02
     22 -0.129922D+00  0.985631D-01  0.776763D-01  0.776236D-02 -0.166916D-01
     23  0.305771D-01 -0.130937D+00 -0.140437D+00 -0.504164D-04 -0.156094D-02
     24 -0.569870D-01 -0.423006D-01 -0.180920D+00  0.569531D-02 -0.231097D-01
     25  0.246518D-01 -0.592575D-01 -0.704564D-01  0.194437D-02  0.112690D-01
     26 -0.498933D-01  0.626555D-01  0.218449D-01  0.399060D-02  0.878984D-03
     27 -0.673984D-01  0.202325D-01 -0.262613D-01 -0.366012D-02 -0.431259D-02
               21            22            23            24            25 
     21  0.231661D+00
     22 -0.203842D-01  0.744796D-01
     23  0.483020D-03 -0.113209D+00  0.203930D+00
     24 -0.193003D-01 -0.162614D+00  0.207291D+00  0.201070D+00
     25  0.698768D-03  0.461697D-01 -0.771123D-02  0.663395D-01 -0.207512D-01
     26 -0.531700D-02 -0.727937D-01 -0.202014D-01 -0.599681D-01  0.906491D-01
     27  0.401325D-04 -0.329208D-01  0.454872D-02 -0.530602D-01  0.796628D-01
               26            27 
     26 -0.234158D-01
     27 -0.304778D-01  0.595538D-01
 Leave Link  716 at Wed Jan  6 21:15:16 2021, MaxMem=    33554432 cpu:         0.0
 (Enter /apps/applications/gaussian/G09.D01/2/default/g09/l103.exe)

 GradGradGradGradGradGradGradGradGradGradGradGradGradGradGradGradGradGrad
 Berny optimization.
 Search for a saddle point.
 Step number   1 out of a maximum of  100
 All quantities printed in internal units (Hartrees-Bohrs-Radians)
 Swapping is turned off.
 Second derivative matrix not updated -- analytic derivatives used.
 ITU=  0
     Eigenvalues ---   -0.39986  -0.00351   0.00235   0.00603   0.04871
     Eigenvalues ---    0.05498   0.06552   0.09108   0.10726   0.11082
     Eigenvalues ---    0.11510   0.13222   0.17981   0.23202   0.27044
     Eigenvalues ---    0.47940   0.62762   0.66004   0.73658   0.84235
     Eigenvalues ---    1.32404
 Eigenvectors required to have negative eigenvalues:
                          X9        Y9        Z2        X8        Z8
   1                    0.50713  -0.43149   0.41897  -0.29769  -0.26337
                          Z9        X2        Z6        Y6        Z1
   1                   -0.24052   0.23411   0.18104   0.13342  -0.12603
 Eigenvalue     2 is  -3.51D-03 should be greater than     0.000000 Eigenvector:
                          X5        Z2        X9        Y8        Z9
   1                    0.37377   0.36924  -0.34033   0.32575   0.27034
                          Y2        Z4        Y5        Z5        Y4
   1                   -0.26935  -0.23487  -0.23021  -0.22681   0.21979
 RFO step:  Lambda0=4.122245890D-03 Lambda=-1.67479353D-02.
 Linear search not attempted -- option 19 set.
 Maximum step size (   0.300) exceeded in Quadratic search.
    -- Step size scaled by   0.363
 TrRot= -0.001912 -0.003855 -0.008936 -1.700827 -0.003564  1.696146
 Variable       Old X    -DE/DX   Delta X   Delta X   Delta X     New X
                                 (Linear)    (Quad)   (Total)
    X1       -1.59979  -0.01020   0.00000  -0.01234  -0.00548  -1.60528
    Y1        1.78763   0.02788   0.00000   0.03716   0.04243   1.83006
    Z1        0.41150   0.01645   0.00000   0.04192   0.02725   0.43874
    X2       -0.19987  -0.00684   0.00000   0.00418   0.00018  -0.19968
    Y2       -0.47685  -0.02032   0.00000   0.05132   0.04770  -0.42915
    Z2       -0.10144  -0.02015   0.00000  -0.09342  -0.10076  -0.20221
    X3       -0.81520  -0.00164   0.00000   0.00634   0.01911  -0.79609
    Y3        2.92809   0.00191   0.00000   0.00922   0.01622   2.94431
    Z3        1.96511  -0.00003   0.00000   0.04841   0.02944   1.99454
    X4       -3.58501   0.00338   0.00000   0.01107   0.01579  -3.56921
    Y4        1.33769   0.00080   0.00000  -0.02258  -0.00638   1.33131
    Z4        0.88206  -0.00186   0.00000   0.06545   0.05345   0.93551
    X5       -1.67527   0.00055   0.00000  -0.08205  -0.07009  -1.74536
    Y5        3.01695  -0.00267   0.00000   0.06344   0.06349   3.08044
    Z5       -1.27647   0.00178   0.00000   0.06759   0.04855  -1.22791
    X6        2.05891  -0.03008   0.00000  -0.03539  -0.04476   2.01415
    Y6       -1.63766   0.00657   0.00000   0.01477   0.00271  -1.63495
    Z6        0.38213  -0.00485   0.00000  -0.03069  -0.03479   0.34734
    X7        3.41731   0.00471   0.00000  -0.05449  -0.06355   3.35376
    Y7       -1.76763   0.00596   0.00000   0.06259   0.04964  -1.71798
    Z7        1.87336   0.00512   0.00000   0.00163  -0.00279   1.87057
    X8        2.33561   0.04594   0.00000   0.02522   0.00792   2.34354
    Y8       -3.01433  -0.03986   0.00000  -0.10072  -0.12155  -3.13587
    Z8       -1.71173  -0.02677   0.00000   0.02109   0.02213  -1.68960
    X9        0.06331  -0.00582   0.00000   0.15447   0.14087   0.20418
    Y9       -2.17389   0.01973   0.00000  -0.08072  -0.09427  -2.26816
    Z9       -2.42451   0.03031   0.00000  -0.04143  -0.04248  -2.46699
         Item               Value     Threshold  Converged?
 Maximum Force            0.045942     0.000450     NO 
 RMS     Force            0.018118     0.000300     NO 
 Maximum Displacement     0.140868     0.001800     NO 
 RMS     Displacement     0.056613     0.001200     NO 
 Predicted change in Energy=-4.200494D-03
 Lowest energy point so far.  Saving SCF results.
 GradGradGradGradGradGradGradGradGradGradGradGradGradGradGradGradGradGrad

 Leave Link  103 at Wed Jan  6 21:15:16 2021, MaxMem=    33554432 cpu:         0.0
 (Enter /apps/applications/gaussian/G09.D01/2/default/g09/l202.exe)
                          Input orientation:                          
 ---------------------------------------------------------------------
 Center     Atomic      Atomic             Coordinates (Angstroms)
 Number     Number       Type             X           Y           Z
 ---------------------------------------------------------------------
      1          6           0       -0.849477    0.968426    0.232173
      2          6           0       -0.105667   -0.227097   -0.107003
      3          1           0       -0.421271    1.558060    1.055467
      4          1           0       -1.888746    0.704499    0.495049
      5          1           0       -0.923607    1.630099   -0.649783
      6          6           0        1.065843   -0.865179    0.183806
      7          1           0        1.774733   -0.909117    0.989861
      8          8           0        1.240146   -1.659432   -0.894098
      9          1           0        0.108046   -1.200259   -1.305472
 ---------------------------------------------------------------------
                    Distance matrix (angstroms):
                    1          2          3          4          5
     1  C    0.000000
     2  C    1.448299   0.000000
     3  H    1.099473   2.153539   0.000000
     4  H    1.104012   2.099931   1.787769   0.000000
     5  H    1.105058   2.100670   1.779160   1.760361   0.000000
     6  C    2.651960   1.365340   2.973783   3.360113   3.298362
     7  H    3.314474   2.281264   3.303589   4.033569   4.051801
     8  O    3.541278   2.117148   4.112586   4.160273   3.944938
     9  H    2.825667   1.558540   3.669133   3.295020   3.083045
                    6          7          8          9
     6  C    0.000000
     7  H    1.074329   0.000000
     8  O    1.350221   2.097155   0.000000
     9  H    1.802111   2.851520   1.289077   0.000000
 Stoichiometry    C3H5O(2)
 Framework group  C1[X(C3H5O)]
 Deg. of freedom    21
 Full point group                 C1      NOp   1
 RotChk:  IX=0 Diff= 3.24D-02
 Largest Abelian subgroup         C1      NOp   1
 Largest concise Abelian subgroup C1      NOp   1
                         Standard orientation:                         
 ---------------------------------------------------------------------
 Center     Atomic      Atomic             Coordinates (Angstroms)
 Number     Number       Type             X           Y           Z
 ---------------------------------------------------------------------
      1          6           0        1.821397   -0.047066    0.049519
      2          6           0        0.389520   -0.140036   -0.147092
      3          1           0        2.185536    0.957596    0.308166
      4          1           0        2.349886   -0.387395   -0.858070
      5          1           0        2.137570   -0.734913    0.854537
      6          6           0       -0.749008    0.602189   -0.016680
      7          1           0       -1.031956    1.638517   -0.004547
      8          8           0       -1.707234   -0.345840    0.061668
      9          1           0       -0.754623   -1.197602   -0.107908
 ---------------------------------------------------------------------
 Rotational constants (GHZ):     35.5449582      4.4663420      4.0920233
 Leave Link  202 at Wed Jan  6 21:15:16 2021, MaxMem=    33554432 cpu:         0.0
 (Enter /apps/applications/gaussian/G09.D01/2/default/g09/l301.exe)
 Standard basis: 3-21G (6D, 7F)
 Ernie: Thresh=  0.10000D-02 Tol=  0.10000D-05 Strict=F.
 There are    46 symmetry adapted cartesian basis functions of A   symmetry.
 There are    46 symmetry adapted basis functions of A   symmetry.
    46 basis functions,    75 primitive gaussians,    46 cartesian basis functions
    16 alpha electrons       15 beta electrons
       nuclear repulsion energy       109.0109699317 Hartrees.
 IExCor=  402 DFT=T Ex+Corr=B3LYP ExCW=0 ScaHFX=  0.200000
 ScaDFX=  0.800000  0.720000  1.000000  0.810000 ScalE2=  1.000000  1.000000
 IRadAn=      0 IRanWt=     -1 IRanGd=            0 ICorTp=0 IEmpDi=  4
 NAtoms=    9 NActive=    9 NUniq=    9 SFac= 1.00D+00 NAtFMM=   60 NAOKFM=F Big=F
 Integral buffers will be    131072 words long.
 Raffenetti 2 integral format.
 Two-electron integral symmetry is turned on.
 Leave Link  301 at Wed Jan  6 21:15:16 2021, MaxMem=    33554432 cpu:         0.1
 (Enter /apps/applications/gaussian/G09.D01/2/default/g09/l302.exe)
 NPDir=0 NMtPBC=     1 NCelOv=     1 NCel=       1 NClECP=     1 NCelD=      1
         NCelK=      1 NCelE2=     1 NClLst=     1 CellRange=     0.0.
 One-electron integrals computed using PRISM.
 NBasis=    46 RedAO= T EigKep=  6.50D-03  NBF=    46
 NBsUse=    46 1.00D-06 EigRej= -1.00D+00 NBFU=    46
 Precomputing XC quadrature grid using
 IXCGrd= 4 IRadAn=           0 IRanWt=          -1 IRanGd=           0 AccXCQ= 0.00D+00.
 Generated NRdTot=       0 NPtTot=           0 NUsed=           0 NTot=          32
 NSgBfM=    46    46    46    46    46 MxSgAt=     9 MxSgA2=     9.
 Leave Link  302 at Wed Jan  6 21:15:16 2021, MaxMem=    33554432 cpu:         0.2
 (Enter /apps/applications/gaussian/G09.D01/2/default/g09/l303.exe)
 DipDrv:  MaxL=1.
 Leave Link  303 at Wed Jan  6 21:15:16 2021, MaxMem=    33554432 cpu:         0.0
 (Enter /apps/applications/gaussian/G09.D01/2/default/g09/l401.exe)
 Initial guess from the checkpoint file:  "/nobackup/chmrsh/Scratch/Gau-144898.chk"
 B after Tr=     0.000000    0.000000    0.000000
         Rot=    0.999964    0.006232   -0.000917    0.005606 Ang=   0.97 deg.
 Guess basis will be translated and rotated to current coordinates.
 JPrj=2 DoOrth=T DoCkMO=T.
 Initial guess <Sx>= 0.0000 <Sy>= 0.0000 <Sz>= 0.5000 <S**2>= 0.7606 S= 0.5053
 Generating alternative initial guess.
 ExpMin= 1.83D-01 ExpMax= 3.22D+02 ExpMxC= 3.22D+02 IAcc=1 IRadAn=         1 AccDes= 0.00D+00
 Harris functional with IExCor=  402 and IRadAn=       1 diagonalized for initial guess.
 HarFok:  IExCor=  402 AccDes= 0.00D+00 IRadAn=         1 IDoV= 1 UseB2=F ITyADJ=14
 ICtDFT=  3500011 ScaDFX=  1.000000  1.000000  1.000000  1.000000
 FoFCou: FMM=F IPFlag=           0 FMFlag=      100000 FMFlg1=           0
         NFxFlg=           0 DoJE=T BraDBF=F KetDBF=T FulRan=T
         wScrn=  0.000000 ICntrl=     500 IOpCl=  0 I1Cent=   200000004 NGrid=           0
         NMat0=    1 NMatS0=      1 NMatT0=    0 NMatD0=    1 NMtDS0=    0 NMtDT0=    0
 Petite list used in FoFCou.
 Harris En= -191.313058649616    
 Leave Link  401 at Wed Jan  6 21:15:17 2021, MaxMem=    33554432 cpu:         0.3
 (Enter /apps/applications/gaussian/G09.D01/2/default/g09/l508.exe)
 Direct SCF.
 Tight linear equation convergence will be used.
 UB3LYP wavefunction.
 Quadratic Convergence SCF Method.
 Line search only if initial step raises energy.
 Integral symmetry usage will be decided dynamically.
 ReadGW:  IGet=1 IStart=         402 Next=         402 LGW=           0.
 Keep R1 and R2 ints in memory in canonical form, NReq=2054798.
 FoFCou: FMM=F IPFlag=           0 FMFlag=           0 FMFlg1=           0
         NFxFlg=           0 DoJE=F BraDBF=F KetDBF=F FulRan=T
         wScrn=  0.000000 ICntrl=     600 IOpCl=  0 I1Cent=           0 NGrid=           0
         NMat0=    1 NMatS0=   1081 NMatT0=    0 NMatD0=    1 NMtDS0=    0 NMtDT0=    0
 Symmetry not used in FoFCou.
 Iteration   1 EE= -191.317740312877                                    Grad=6.898D-02 Max rot=    0.5483 deg.
 Gradient too large for Newton-Raphson -- use scaled steepest descent instead.
 Alpha Gap=     0.484 HL deriv= 2.95D-03
  Beta Gap=     0.465 HL deriv= 2.06D-03
     ILin= 1 X=0.000D+00 Y=-1.913177403129D+02 DE= 0.00D+00 F= -5.29D-03
     ILin= 2 X=3.000D-01 Y=-1.913191038613D+02 DE=-1.36D-03 F= -3.80D-03
     ILin= 3 X=6.000D-01 Y=-1.913200211252D+02 DE=-2.28D-03 F= -2.31D-03
     ILin= 4 X=1.200D+00 Y=-1.913205180094D+02 DE=-2.78D-03 F=  6.57D-04
     Accept linear search using points  3 and  4.
     An  expanding polynomial of degree  4 produced  0.9761
 Iteration   2 EE= -191.320541065041     Delta-E=       -0.002800752164 Grad=2.841D-02 Max rot=    0.3218 deg.
 Gradient too large for Newton-Raphson -- use scaled steepest descent instead.
 Alpha Gap=     0.482 HL deriv= 1.25D-03
  Beta Gap=     0.463 HL deriv= 1.75D-03
     ILin= 1 X=0.000D+00 Y=-1.913205410650D+02 DE= 0.00D+00 F= -1.29D-03
     ILin= 2 X=5.000D-01 Y=-1.913209555810D+02 DE=-4.15D-04 F= -3.64D-04
     ILin= 3 X=1.100D+00 Y=-1.913208392157D+02 DE=-2.98D-04 F=  7.52D-04
     An  expanding polynomial of degree  3 produced  0.6957
 Iteration   3 EE= -191.320991184588     Delta-E=       -0.000450119547 Grad=2.066D-02 Max rot=    0.2343 deg.
 Gradient too large for Newton-Raphson -- use scaled steepest descent instead.
 Alpha Gap=     0.484 HL deriv= 9.55D-04
  Beta Gap=     0.465 HL deriv= 9.42D-04
     ILin= 1 X=0.000D+00 Y=-1.913209911846D+02 DE= 0.00D+00 F= -6.89D-04
     ILin= 2 X=8.000D-01 Y=-1.913211847521D+02 DE=-1.94D-04 F=  2.05D-04
     Accept linear search using points  1 and  2.
     An  expanding polynomial of degree  2 produced  0.5638
 Iteration   4 EE= -191.321201978196     Delta-E=       -0.000210793608 Grad=1.394D-02 Max rot=    0.1874 deg.
 Gradient too large for Newton-Raphson -- use scaled steepest descent instead.
 Alpha Gap=     0.482 HL deriv= 1.69D-04
  Beta Gap=     0.463 HL deriv= 3.78D-04
     ILin= 1 X=0.000D+00 Y=-1.913212019782D+02 DE= 0.00D+00 F= -3.34D-04
     ILin= 2 X=6.000D-01 Y=-1.913213270495D+02 DE=-1.25D-04 F= -8.30D-05
     ILin= 3 X=1.300D+00 Y=-1.913212826445D+02 DE=-8.07D-05 F=  2.10D-04
     An  expanding polynomial of degree  3 produced  0.7983
 Iteration   5 EE= -191.321335277236     Delta-E=       -0.000133299040 Grad=1.425D-02 Max rot=    0.1597 deg.
 Gradient too large for Newton-Raphson -- use scaled steepest descent instead.
 Alpha Gap=     0.484 HL deriv= 6.45D-04
  Beta Gap=     0.465 HL deriv= 6.64D-04
     ILin= 1 X=0.000D+00 Y=-1.913213352772D+02 DE= 0.00D+00 F= -3.34D-04
     ILin= 2 X=7.000D-01 Y=-1.913214105570D+02 DE=-7.53D-05 F=  1.19D-04
     Accept linear search using points  1 and  2.
     An  expanding polynomial of degree  2 produced  0.4487
 Iteration   6 EE= -191.321420042651     Delta-E=       -0.000084765416 Grad=8.059D-03 Max rot=    0.1089 deg.
 QCNR:  CnvC1=3.07D-09 CnvC2=3.07D-08
 LinEq1:  Iter=  0 NonCon=     1 RMS=7.86D-04 Max=1.58D-02 NDo=     1
 AX will form     1 AO Fock derivatives at one time.
 LinEq1:  Iter=  1 NonCon=     1 RMS=2.21D-04 Max=3.12D-03 NDo=     1
 LinEq1:  Iter=  2 NonCon=     1 RMS=2.99D-04 Max=4.86D-03 NDo=     1
 LinEq1:  Iter=  3 NonCon=     1 RMS=2.29D-04 Max=2.75D-03 NDo=     1
 LinEq1:  Iter=  4 NonCon=     1 RMS=2.11D-04 Max=3.42D-03 NDo=     1
 LinEq1:  Iter=  5 NonCon=     1 RMS=1.17D-04 Max=1.41D-03 NDo=     1
 LinEq1:  Iter=  6 NonCon=     1 RMS=4.20D-05 Max=3.55D-04 NDo=     1
 LinEq1:  Iter=  7 NonCon=     1 RMS=2.03D-05 Max=1.81D-04 NDo=     1
 LinEq1:  Iter=  8 NonCon=     1 RMS=9.11D-06 Max=1.16D-04 NDo=     1
 LinEq1:  Iter=  9 NonCon=     1 RMS=4.40D-06 Max=3.32D-05 NDo=     1
 LinEq1:  Iter= 10 NonCon=     1 RMS=2.07D-06 Max=1.23D-05 NDo=     1
 LinEq1:  Iter= 11 NonCon=     1 RMS=5.51D-07 Max=6.94D-06 NDo=     1
 LinEq1:  Iter= 12 NonCon=     1 RMS=1.32D-07 Max=9.15D-07 NDo=     1
 LinEq1:  Iter= 13 NonCon=     1 RMS=2.85D-08 Max=1.82D-07 NDo=     1
 LinEq1:  Iter= 14 NonCon=     1 RMS=7.10D-09 Max=8.39D-08 NDo=     1
 LinEq1:  Iter= 15 NonCon=     0 RMS=1.34D-09 Max=9.76D-09 NDo=     1
 Linear equations converged to 3.074D-09 3.074D-08 after    15 iterations.
 Angle between quadratic step and gradient=  45.77 degrees.
     ILin= 1 X=0.000D+00 Y=-1.913214200427D+02 DE= 0.00D+00 F= -4.95D-04
     ILin= 2 X=1.000D+00 Y=-1.913216666548D+02 DE=-2.47D-04 F=  2.27D-06
     Accept linear search using points  1 and  2.
     An  expanding polynomial of degree  2 produced  0.9954
     Minimum is close to point  2 DX= -4.55D-03 DF= -5.18D-09 DXR=  4.57D-03 DFR=  2.10D-05 which will be used.
 Iteration   7 EE= -191.321666654820     Delta-E=       -0.000246612169 Grad=2.762D-04 Max rot=    0.0031 deg.
 QCNR:  CnvC1=2.76D-09 CnvC2=2.76D-08
 LinEq1:  Iter=  0 NonCon=     1 RMS=1.91D-05 Max=2.65D-04 NDo=     1
 LinEq1:  Iter=  1 NonCon=     1 RMS=2.38D-05 Max=4.92D-04 NDo=     1
 LinEq1:  Iter=  2 NonCon=     1 RMS=1.08D-05 Max=1.48D-04 NDo=     1
 LinEq1:  Iter=  3 NonCon=     1 RMS=1.01D-05 Max=9.25D-05 NDo=     1
 LinEq1:  Iter=  4 NonCon=     1 RMS=4.73D-06 Max=3.95D-05 NDo=     1
 LinEq1:  Iter=  5 NonCon=     1 RMS=2.19D-06 Max=2.30D-05 NDo=     1
 LinEq1:  Iter=  6 NonCon=     1 RMS=9.55D-07 Max=9.07D-06 NDo=     1
 LinEq1:  Iter=  7 NonCon=     1 RMS=3.17D-07 Max=2.52D-06 NDo=     1
 LinEq1:  Iter=  8 NonCon=     1 RMS=1.72D-07 Max=1.80D-06 NDo=     1
 LinEq1:  Iter=  9 NonCon=     1 RMS=7.14D-08 Max=8.96D-07 NDo=     1
 LinEq1:  Iter= 10 NonCon=     1 RMS=2.22D-08 Max=2.93D-07 NDo=     1
 LinEq1:  Iter= 11 NonCon=     1 RMS=6.42D-09 Max=4.96D-08 NDo=     1
 LinEq1:  Iter= 12 NonCon=     0 RMS=1.63D-09 Max=1.69D-08 NDo=     1
 Linear equations converged to 2.762D-09 2.762D-08 after    12 iterations.
 Angle between quadratic step and gradient=  77.35 degrees.
     ILin= 1 X=0.000D+00 Y=-1.913216666548D+02 DE= 0.00D+00 F= -1.30D-07
     ILin= 2 X=1.000D+00 Y=-1.913216667200D+02 DE=-6.52D-08 F= -3.60D-11
     Reject lnstep minimum 1.000D+00 FVal=-1.913216667200D+02 Lims=  0.00D+00  1.00D+00
     ILin= 3 X=2.000D+00 Y=-1.913216666549D+02 DE=-9.73D-11 F=  1.30D-07
     An  expanding polynomial of degree  3 produced  1.0004
     Minimum is close to point  2 DX=  3.73D-04 DF= -2.84D-14 DXR=  3.73D-04 DFR=  4.36D-07 which will be used.
 Iteration   8 EE= -191.321666720017     Delta-E=       -0.000000065197 Grad=1.372D-07 Max rot=    0.0000 deg.
 Rotation gradient small -- convergence achieved.
 SCF Done:  E(UB3LYP) =  -191.321666720     a.u. after    8 cycles
            Convg  =    0.1372D-06                    45 Fock formations.
              S**2 =  0.7604                  -V/T =  2.0081
 <Sx>= 0.0000 <Sy>= 0.0000 <Sz>= 0.5000 <S**2>= 0.7604 S= 0.5052
 <L.S>= 0.000000000000E+00
 Annihilation of the first spin contaminant:
 S**2 before annihilation     0.7604,   after     0.7500
 Leave Link  508 at Wed Jan  6 21:15:48 2021, MaxMem=    33554432 cpu:        31.6
 (Enter /apps/applications/gaussian/G09.D01/2/default/g09/l801.exe)
 DoSCS=F DFT=T ScalE2(SS,OS)=  1.000000  1.000000
 Range of M.O.s used for correlation:     1    46
 NBasis=    46 NAE=    16 NBE=    15 NFC=     0 NFV=     0
 NROrb=     46 NOA=    16 NOB=    15 NVA=    30 NVB=    31

 **** Warning!!: The smallest beta delta epsilon is  0.96207756D-01

 Leave Link  801 at Wed Jan  6 21:15:48 2021, MaxMem=    33554432 cpu:         0.1
 (Enter /apps/applications/gaussian/G09.D01/2/default/g09/l1101.exe)
 Using compressed storage, NAtomX=     9.
 Will process     10 centers per pass.
 Leave Link 1101 at Wed Jan  6 21:15:48 2021, MaxMem=    33554432 cpu:         0.1
 (Enter /apps/applications/gaussian/G09.D01/2/default/g09/l1102.exe)
 Symmetrizing basis deriv contribution to polar:
 IMax=3 JMax=2 DiffMx= 0.00D+00
 Leave Link 1102 at Wed Jan  6 21:15:49 2021, MaxMem=    33554432 cpu:         0.1
 (Enter /apps/applications/gaussian/G09.D01/2/default/g09/l1110.exe)
 Forming Gx(P) for the SCF density, NAtomX=     9.
 Integral derivatives from FoFJK, PRISM(SPDF).
 Do as many integral derivatives as possible in FoFJK.
 G2DrvN: MDV=      33554256.
 G2DrvN: will do    10 centers at a time, making    1 passes.
 Calling FoFCou, ICntrl=  3107 FMM=F I1Cent=   0 AccDes= 0.00D+00.
 FoFJK:  IHMeth= 1 ICntrl=    3107 DoSepK=F KAlg= 0 I1Cent=   0 FoldK=F
 IRaf=         0 NMat=   1 IRICut=       1 DoRegI=T DoRafI=F ISym2E= 0.
 FoFCou: FMM=F IPFlag=           0 FMFlag=      100000 FMFlg1=           0
         NFxFlg=           0 DoJE=F BraDBF=F KetDBF=F FulRan=T
         wScrn=  0.000000 ICntrl=    3107 IOpCl=  1 I1Cent=           0 NGrid=           0
         NMat0=    1 NMatS0=      1 NMatT0=    0 NMatD0=    1 NMtDS0=    0 NMtDT0=    0
 Symmetry not used in FoFCou.
 End of G2Drv F.D. properties file   721 does not exist.
 End of G2Drv F.D. properties file   722 does not exist.
 End of G2Drv F.D. properties file   788 does not exist.
 Leave Link 1110 at Wed Jan  6 21:15:59 2021, MaxMem=    33554432 cpu:        10.2
 (Enter /apps/applications/gaussian/G09.D01/2/default/g09/l1002.exe)
 Minotr:  UHF open shell wavefunction.
          IDoAtm=111111111
          Direct CPHF calculation.
          Differentiating once with respect to electric field.
                with respect to dipole field.
          Differentiating once with respect to nuclear coordinates.
          Requested convergence is 1.0D-08 RMS, and 1.0D-07 maximum.
          Secondary convergence is 1.0D-12 RMS, and 1.0D-12 maximum.
          NewPWx=T KeepS1=F KeepF1=F KeepIn=T MapXYZ=F SortEE=F KeepMc=T.
          MDV=      33554246 using IRadAn=       2.
 Generate precomputed XC quadrature information.
 Keep R1 and R2 ints in memory in canonical form, NReq=2035813.
 FoFCou: FMM=F IPFlag=           0 FMFlag=           0 FMFlg1=           0
         NFxFlg=           0 DoJE=F BraDBF=F KetDBF=F FulRan=T
         wScrn=  0.000000 ICntrl=     600 IOpCl=  0 I1Cent=           0 NGrid=           0
         NMat0=    1 NMatS0=   1081 NMatT0=    0 NMatD0=    1 NMtDS0=    0 NMtDT0=    0
 Symmetry not used in FoFCou.
          Solving linear equations simultaneously, MaxMat=       0.
          There are    30 degrees of freedom in the 1st order CPHF.  IDoFFX=6 NUNeed=     3.
     27 vectors produced by pass  0 Test12= 3.15D-15 3.33D-09 XBig12= 1.48D+02 5.06D+00.
 AX will form    27 AO Fock derivatives at one time.
     27 vectors produced by pass  1 Test12= 3.15D-15 3.33D-09 XBig12= 4.77D+01 1.66D+00.
     27 vectors produced by pass  2 Test12= 3.15D-15 3.33D-09 XBig12= 5.48D-01 2.31D-01.
     27 vectors produced by pass  3 Test12= 3.15D-15 3.33D-09 XBig12= 3.33D-03 1.30D-02.
     27 vectors produced by pass  4 Test12= 3.15D-15 3.33D-09 XBig12= 2.69D-05 1.05D-03.
     27 vectors produced by pass  5 Test12= 3.15D-15 3.33D-09 XBig12= 9.14D-08 4.44D-05.
      7 vectors produced by pass  6 Test12= 3.15D-15 3.33D-09 XBig12= 1.87D-10 1.87D-06.
      2 vectors produced by pass  7 Test12= 3.15D-15 3.33D-09 XBig12= 3.99D-13 1.08D-07.
      1 vectors produced by pass  8 Test12= 3.15D-15 3.33D-09 XBig12= 9.25D-16 4.54D-09.
 InvSVY:  IOpt=1 It=  1 EMax= 1.07D-14
 Solved reduced A of dimension   172 with    30 vectors.
 FullF1:  Do perturbations    1 to     3.
 Isotropic polarizability for W=    0.000000       34.68 Bohr**3.
 End of Minotr F.D. properties file   721 does not exist.
 End of Minotr F.D. properties file   722 does not exist.
 End of Minotr F.D. properties file   788 does not exist.
 Leave Link 1002 at Wed Jan  6 21:16:09 2021, MaxMem=    33554432 cpu:        10.1
 (Enter /apps/applications/gaussian/G09.D01/2/default/g09/l701.exe)
 Compute integral second derivatives.
 ... and contract with generalized density number  0.
 Leave Link  701 at Wed Jan  6 21:16:09 2021, MaxMem=    33554432 cpu:         0.1
 (Enter /apps/applications/gaussian/G09.D01/2/default/g09/l702.exe)
 L702 exits ... SP integral derivatives will be done elsewhere.
 Leave Link  702 at Wed Jan  6 21:16:09 2021, MaxMem=    33554432 cpu:         0.0
 (Enter /apps/applications/gaussian/G09.D01/2/default/g09/l703.exe)
 Compute integral second derivatives, UseDBF=F ICtDFT=           0.
 Integral derivatives from FoFJK, PRISM(SPDF).
 Calling FoFJK, ICntrl=    100127 FMM=F ISym2X=0 I1Cent= 0 IOpClX= 1 NMat=1 NMatS=1 NMatT=0.
 FoFJK:  IHMeth= 1 ICntrl=  100127 DoSepK=F KAlg= 0 I1Cent=   0 FoldK=F
 IRaf=         0 NMat=   1 IRICut=       1 DoRegI=T DoRafI=F ISym2E= 0.
 FoFCou: FMM=F IPFlag=           0 FMFlag=      100000 FMFlg1=         800
         NFxFlg=           0 DoJE=F BraDBF=F KetDBF=F FulRan=T
         wScrn=  0.000000 ICntrl=  100127 IOpCl=  1 I1Cent=           0 NGrid=           0
         NMat0=    1 NMatS0=      1 NMatT0=    0 NMatD0=    1 NMtDS0=    0 NMtDT0=    0
 Symmetry not used in FoFCou.
 Leave Link  703 at Wed Jan  6 21:16:18 2021, MaxMem=    33554432 cpu:         8.9
 (Enter /apps/applications/gaussian/G09.D01/2/default/g09/l716.exe)
 Dipole        = 6.96841372D-01 4.23618625D-01 1.13412525D-01
 Polarizability= 5.10842893D+01-1.88172319D+00 3.42648076D+01
                -9.08013639D-01 6.11735650D-01 1.86988250D+01
 ***** Axes restored to original set *****
 -------------------------------------------------------------------
 Center     Atomic                   Forces (Hartrees/Bohr)
 Number     Number              X              Y              Z
 -------------------------------------------------------------------
      1        6          -0.006307622    0.018552547    0.009886892
      2        6          -0.004865122   -0.013273019   -0.012321239
      3        1          -0.000664846    0.001331239    0.000244725
      4        1           0.002592443    0.000985032   -0.001059777
      5        1           0.000446130   -0.001499032    0.002048582
      6        6          -0.020215347    0.004175321   -0.003523670
      7        1           0.002169541    0.004040210    0.003101759
      8        8           0.028478654   -0.024661339   -0.018001310
      9        1          -0.001633831    0.010349040    0.019624039
 -------------------------------------------------------------------
 Cartesian Forces:  Max     0.028478654 RMS     0.011480126
 Force constants in Cartesian coordinates: 
                1             2             3             4             5 
      1  0.500268D+00
      2  0.329310D-02  0.505346D+00
      3 -0.496824D-02  0.214208D-01  0.488698D+00
      4 -0.806350D-01  0.107044D+00  0.846418D-01  0.364540D+00
      5  0.697103D-01 -0.199114D+00 -0.686874D-01 -0.299477D+00  0.425780D+00
      6  0.539199D-01 -0.255397D-01 -0.224892D-01 -0.111157D+00  0.614373D-01
      7 -0.900666D-01 -0.502164D-01 -0.684524D-01 -0.279565D-02  0.164037D-01
      8 -0.560708D-01 -0.114132D+00 -0.100834D+00  0.331201D-02 -0.266389D-01
      9 -0.758719D-01 -0.945585D-01 -0.188249D+00  0.528160D-02 -0.914409D-02
     10 -0.256106D+00 -0.632267D-01  0.524546D-01 -0.220243D-01  0.674005D-02
     11 -0.577270D-01 -0.601186D-01  0.120056D-01  0.293404D-01  0.299930D-02
     12  0.541782D-01  0.919964D-02 -0.590148D-01  0.299366D-02  0.293575D-02
     13 -0.404522D-01  0.929907D-02 -0.141957D-01 -0.707661D-02  0.157567D-01
     14  0.116592D-01 -0.128335D+00  0.120592D+00 -0.418133D-02 -0.209090D-01
     15 -0.968879D-02  0.110241D+00 -0.198030D+00 -0.645022D-02 -0.163672D-02
     16 -0.327727D-01 -0.175274D-01 -0.409510D-01 -0.199635D+00  0.137061D+00
     17  0.465619D-01  0.448626D-02  0.429380D-01  0.275964D-01 -0.127800D+00
     18  0.196766D-01 -0.144084D-01  0.242790D-01 -0.169583D+00  0.796879D-01
     19 -0.176400D-02 -0.649129D-03 -0.184499D-02  0.266106D-02 -0.188626D-02
     20 -0.124367D-04  0.119771D-02  0.137700D-02  0.331138D-02  0.113370D-01
     21  0.525679D-03  0.125045D-02  0.811232D-03  0.354661D-02 -0.590473D-02
     22 -0.876957D-02  0.537256D-02 -0.232334D-01  0.918932D-02  0.937782D-01
     23 -0.129102D-02 -0.377335D-02 -0.317245D-02  0.842566D-01 -0.517344D-01
     24 -0.299515D-01 -0.836148D-02 -0.328641D-01  0.162536D+00 -0.635527D-01
     25  0.102981D-01  0.661128D-02  0.165495D-01 -0.642238D-01 -0.380859D-01
     26 -0.161232D-01 -0.555792D-02 -0.256397D-01  0.487983D-01 -0.139195D-01
     27 -0.782011D-02  0.755826D-03 -0.131417D-01  0.281906D-01  0.486472D-02
                6             7             8             9            10 
      6  0.463641D-02
      7  0.434122D-02  0.967487D-01
      8 -0.168055D-01  0.555076D-01  0.128717D+00
      9  0.302222D-03  0.833585D-01  0.110494D+00  0.204230D+00
     10  0.438014D-02 -0.128531D-01 -0.392167D-02  0.302482D-02  0.289428D+00
     11 -0.149825D-01 -0.161116D-01 -0.491913D-02  0.556422D-02  0.607984D-01
     12 -0.506387D-02 -0.257255D-01 -0.621389D-02  0.652305D-02 -0.611262D-01
     13 -0.160926D-01 -0.208761D-02  0.875182D-02 -0.121753D-01  0.396917D-03
     14  0.838929D-02 -0.238560D-02  0.122221D-01 -0.143204D-01 -0.603222D-03
     15  0.448388D-02 -0.149474D-02  0.156956D-01 -0.210138D-01 -0.262052D-03
     16  0.180045D-01  0.998537D-02 -0.846988D-02 -0.363561D-02  0.394574D-03
     17 -0.770530D-01 -0.101806D-01  0.925691D-02  0.526190D-02 -0.121808D-02
     18 -0.130210D+00 -0.322746D-02  0.522111D-02  0.232828D-02  0.721158D-03
     19 -0.783965D-02  0.289137D-03  0.206708D-03  0.172660D-03 -0.930703D-04
     20  0.105913D-01 -0.444873D-03 -0.478197D-03 -0.466063D-03 -0.788508D-04
     21  0.201091D-02 -0.412597D-03  0.309298D-03  0.542364D-04  0.330368D-05
     22  0.161751D+00  0.473576D-02  0.415490D-03 -0.115263D-02  0.789112D-03
     23 -0.637993D-01  0.975951D-03 -0.244021D-02 -0.713997D-03  0.111419D-02
     24  0.115408D+00  0.894443D-02 -0.698839D-02 -0.385558D-02  0.655398D-03
     25 -0.107308D+00 -0.395595D-02  0.268688D-03  0.997813D-03  0.675050D-04
     26  0.117762D+00  0.645180D-02 -0.158770D-02 -0.211734D-02  0.395930D-03
     27  0.309225D-01  0.266856D-02 -0.878366D-03 -0.319414D-03  0.148917D-03
               11            12            13            14            15 
     11  0.727179D-01
     12 -0.131841D-01  0.646652D-01
     13 -0.211026D-01  0.271510D-01  0.493412D-01
     14 -0.691545D-02  0.794638D-02 -0.135561D-01  0.147207D+00
     15  0.572040D-02 -0.914753D-02  0.125248D-01 -0.128212D+00  0.222441D+00
     16  0.543239D-02  0.178479D-02  0.414813D-03  0.524655D-02  0.410320D-02
     17 -0.574767D-02 -0.118584D-02  0.181742D-03 -0.828195D-02 -0.306369D-02
     18 -0.336703D-03 -0.504740D-03  0.143026D-02 -0.309364D-02 -0.259539D-02
     19  0.247603D-03  0.528068D-04 -0.184680D-04  0.606149D-03  0.253372D-03
     20 -0.263205D-03 -0.214790D-03 -0.142742D-03 -0.385002D-04  0.840137D-05
     21 -0.164728D-04 -0.157393D-04 -0.697980D-04 -0.318846D-03 -0.134036D-03
     22  0.155268D-02  0.994186D-03 -0.469073D-03  0.780174D-02  0.196226D-02
     23 -0.606044D-03 -0.422506D-03  0.425795D-03 -0.140198D-02 -0.305735D-03
     24  0.392260D-02  0.152902D-02  0.112295D-02  0.575793D-02  0.262672D-02
     25 -0.243022D-02 -0.302915D-03 -0.489085D-04 -0.458739D-02 -0.947876D-03
     26  0.285291D-02  0.113940D-02  0.386262D-03  0.645218D-02  0.155280D-02
     27  0.130693D-02  0.102944D-02  0.304347D-03  0.325949D-02  0.136902D-02
               16            17            18            19            20 
     16  0.514651D+00
     17 -0.107933D+00  0.228332D+00
     18  0.318781D+00  0.284786D-01  0.518825D+00
     19 -0.196393D+00  0.162472D-01 -0.161771D+00  0.185798D+00
     20  0.191998D-01 -0.439171D-01  0.153909D-01 -0.167220D-01  0.341381D-01
     21 -0.156233D+00  0.717350D-02 -0.219491D+00  0.171938D+00  0.207524D-03
[...]
 Thermal correction to Energy=                    0.070855
 Thermal correction to Enthalpy=                  0.071800
 Thermal correction to Gibbs Free Energy=         0.037926
 Sum of electronic and zero-point Energies=           -191.261928
 Sum of electronic and thermal Energies=              -191.256953
 Sum of electronic and thermal Enthalpies=            -191.256009
 Sum of electronic and thermal Free Energies=         -191.289882
 
                     E (Thermal)             CV                S
                      KCal/Mol        Cal/Mol-Kelvin    Cal/Mol-Kelvin
 Total                   44.462             15.134             71.293
 Electronic               0.000              0.000              1.377
 Translational            0.889              2.981             38.044
 Rotational               0.889              2.981             23.708
 Vibrational             42.685              9.172              8.164
 Vibration     1          0.608              1.935              3.147
 Vibration     2          0.620              1.896              2.598
 Vibration     3          0.695              1.666              1.394
                       Q            Log10(Q)             Ln(Q)
 Total Bot       0.359184D-17        -17.444683        -40.167868
 Total V=0       0.720910D+13         12.857881         29.606365
 Vib (Bot)       0.313227D-29        -29.504141        -67.935795
 Vib (Bot)    1  0.174536D+01          0.241886          0.556963
 Vib (Bot)    2  0.129803D+01          0.113284          0.260845
 Vib (Bot)    3  0.623867D+00         -0.204908         -0.471818
 Vib (V=0)       0.628671D+01          0.798423          1.838438
 Vib (V=0)    1  0.231557D+01          0.364658          0.839656
 Vib (V=0)    2  0.189100D+01          0.276691          0.637104
 Vib (V=0)    3  0.129951D+01          0.113778          0.261984
 Electronic      0.200000D+01          0.301030          0.693147
 Translational   0.169300D+08          7.228656         16.644596
 Rotational      0.338666D+05          4.529771         10.430183
 
                                                    Gaussian input prepared by AS
 E
                                                             IR Spectrum
 
      3    33 3                                     2                  11  1 1     1   1 1 1                                         
      2    00 0                                     0                  55  4 4     2   1 1 0  9 9 8        6             3    1 1    
      2    95 0                                     3                  43  5 1     5   5 0 5  7 2 7        5             0    5 1    
      4    02 8                                     6                  81  2 7     2   5 0 5  2 1 5        5             4    6 7    
 
      X    XX X                                     X                  XX  X X     X   X X X  X X X        X             X    X X    
           XX X                                     X                  XX  X X     X   X X X  X X                                    
           XX X                                     X                  XX    X     X   X X X  X X                                    
           XX                                       X                  X     X     X   X X X  X X                                    
            X                                                          X     X     X   X X X  X X                                    
            X                                                          X               X   X  X X                                    
                                                                                       X      X X                                    
                                                                                       X      X X                                    
                                                                                       X      X                                      
                                                                                       X      X                                      
                                                                                       X      X                                      
                                                                                       X      X                                      
                                                                                              X                                      
                                                                                              X                                      
                                                                                              X                                      
                                                                                              X                                      
                                                                                              X                                      
                                                                                              X                                      
                                                                                              X                                      
                                                                                              X                                      
 
 ***** Axes restored to original set *****
 -------------------------------------------------------------------
 Center     Atomic                   Forces (Hartrees/Bohr)
 Number     Number              X              Y              Z
 -------------------------------------------------------------------
      1        6          -0.000000755    0.000000692   -0.000003910
      2        6          -0.000000336   -0.000001331    0.000001572
      3        1           0.000000455    0.000002729   -0.000003318
      4        1           0.000000482    0.000000110    0.000000154
      5        1          -0.000001763   -0.000001888   -0.000003031
      6        6           0.000001377    0.000002243    0.000000800
      7        1           0.000001473    0.000003313   -0.000001262
      8        8          -0.000000141   -0.000003098    0.000006031
      9        1          -0.000000792   -0.000002770    0.000002964
 -------------------------------------------------------------------
 Cartesian Forces:  Max     0.000006031 RMS     0.000002284
 Force constants in Cartesian coordinates: 
                1             2             3             4             5 
      1  0.530089D+00
      2  0.289482D-01  0.444894D+00
      3  0.909493D-02  0.304870D-02  0.492938D+00
      4 -0.805110D-01  0.564807D-01  0.629085D-01  0.412998D+00
      5  0.331285D-01 -0.149504D+00 -0.636333D-01 -0.226971D+00  0.341133D+00
      6  0.301143D-01 -0.401392D-01 -0.361740D-01 -0.301511D-01  0.542339D-01
      7 -0.974966D-01 -0.370298D-01 -0.825753D-01  0.196459D-02  0.844833D-02
      8 -0.415896D-01 -0.751146D-01 -0.794790D-01 -0.162804D-02 -0.209404D-01
      9 -0.894005D-01 -0.715236D-01 -0.220956D+00  0.822139D-03 -0.830276D-02
     10 -0.291580D+00 -0.432836D-01  0.372621D-01 -0.159781D-01  0.536132D-02
     11 -0.400805D-01 -0.485646D-01  0.235835D-02  0.340480D-01 -0.848365D-03
     12  0.379016D-01  0.520954D-03 -0.538289D-01  0.792498D-02  0.359491D-02
     13 -0.403194D-01 -0.111625D-01  0.107469D-01 -0.241461D-02  0.129704D-01
     14 -0.122698D-01 -0.165428D+00  0.132121D+00 -0.375041D-02 -0.245257D-01
     15  0.155094D-01  0.117804D+00 -0.165837D+00 -0.718296D-02 -0.454255D-02
     16 -0.234216D-01 -0.163582D-02 -0.374317D-01 -0.244218D+00  0.114931D+00
     17  0.396575D-01 -0.118103D-01  0.271828D-01  0.497999D-01 -0.113188D+00
     18  0.677014D-02 -0.192851D-01  0.416671D-02 -0.111004D+00  0.441686D-01
     19 -0.190029D-02 -0.458713D-03 -0.343290D-02  0.322198D-02 -0.548098D-02
     20 -0.180640D-02  0.145486D-02  0.108517D-02  0.850952D-02  0.122445D-01
     21  0.158020D-02  0.110520D-02  0.227921D-02 -0.142433D-03 -0.800187D-02
     22  0.479299D-02  0.885344D-02 -0.812604D-02 -0.580677D-01  0.105139D+00
     23 -0.154731D-02 -0.170217D-02 -0.426209D-02  0.782661D-01 -0.414115D-01
     24 -0.123100D-01  0.435945D-02 -0.212550D-01  0.777161D-01 -0.245657D-01
     25  0.346881D-03 -0.711814D-03  0.115534D-01 -0.169947D-01 -0.475263D-01
     26 -0.444046D-02  0.577425D-02 -0.184220D-01  0.524536D-02 -0.295962D-02
     27  0.739885D-03  0.410998D-02 -0.133356D-02 -0.891571D-03  0.704885D-02
                6             7             8             9            10 
      6  0.651311D-01
      7  0.545462D-02  0.102560D+00
      8 -0.205109D-01  0.399516D-01  0.860178D-01
      9 -0.487270D-02  0.988914D-01  0.840815D-01  0.241547D+00
     10  0.502600D-03 -0.134783D-01 -0.240241D-02  0.243809D-02  0.323883D+00
     11 -0.729617D-02 -0.105164D-01 -0.281071D-02  0.298097D-02  0.408418D-01
     12 -0.531848D-02 -0.294927D-01 -0.400911D-02  0.513585D-02 -0.436909D-01
     13 -0.119708D-01 -0.861637D-04  0.110471D-01 -0.115169D-01 -0.411927D-02
     14  0.701323D-02 -0.302349D-03  0.991362D-02 -0.853521D-02 -0.145144D-02
     15  0.213723D-02  0.173975D-02  0.211269D-01 -0.208770D-01  0.299067D-03
     16 -0.360910D-02  0.763618D-02 -0.736821D-02 -0.240069D-02  0.135444D-02
     17 -0.461414D-01 -0.544956D-02  0.552399D-02  0.328479D-02 -0.114569D-02
     18 -0.928866D-01  0.170461D-02  0.968277D-03  0.112229D-02  0.177911D-02
     19 -0.788333D-02  0.638424D-03  0.316904D-03  0.556406D-03  0.129180D-03
     20  0.111627D-01 -0.424919D-03 -0.513033D-03 -0.760179D-03 -0.179817D-03
     21 -0.222060D-02 -0.798971D-03  0.723589D-03  0.156286D-03 -0.870315D-04
     22  0.930547D-01  0.102153D-02  0.302441D-02  0.101909D-02  0.879377D-03
     23 -0.348822D-01  0.137471D-02 -0.179882D-02 -0.831425D-03  0.103522D-02
     24  0.838607D-01  0.524830D-02 -0.342127D-02 -0.187166D-02  0.141600D-02
     25 -0.755120D-01 -0.275998D-02 -0.135175D-02 -0.409027D-03 -0.109092D-02
     26  0.765600D-01  0.394836D-02 -0.277874D-03 -0.394084D-03  0.122469D-02
     27 -0.965668D-02 -0.171710D-03  0.519890D-03  0.615853D-03  0.809409D-04
               11            12            13            14            15 
     11  0.610749D-01
     12 -0.318086D-02  0.571944D-01
     13 -0.260691D-01  0.253045D-01  0.481436D-01
     14 -0.465846D-02  0.432714D-02  0.123000D-01  0.185369D+00
     15  0.456955D-02 -0.587406D-02 -0.155239D-01 -0.138602D+00  0.187937D+00
     16  0.246233D-02  0.174666D-02 -0.204463D-03  0.366014D-02  0.447079D-02
     17 -0.350459D-02 -0.180643D-02 -0.154184D-03 -0.485617D-02 -0.309619D-02
     18  0.505539D-03  0.129106D-02  0.213139D-02 -0.314743D-03 -0.723745D-03
     19  0.287758D-03  0.405360D-03  0.147784D-03  0.706136D-03  0.594556D-03
     20 -0.135231D-04 -0.290786D-03  0.260893D-04  0.981128D-04  0.149408D-03
     21  0.000000D+00 -0.888505D-04 -0.188089D-03 -0.432303D-03 -0.379362D-03
     22 -0.770897D-03  0.171463D-03 -0.338127D-03  0.494943D-02  0.189735D-02
     23 -0.583652D-03 -0.154698D-03  0.654344D-03 -0.106594D-02 -0.276758D-03
     24  0.192958D-03  0.104645D-02  0.106626D-02  0.345721D-02  0.305622D-02
     25 -0.203040D-03 -0.270910D-03 -0.809343D-03 -0.384167D-02 -0.180407D-02
     26 -0.909648D-04  0.998890D-03  0.387828D-03  0.515344D-02  0.286781D-02
     27 -0.131095D-03  0.442631D-03 -0.493324D-04  0.965243D-03  0.560691D-03
               16            17            18            19            20 
     16  0.529865D+00
     17 -0.589237D-01  0.281850D+00
     18  0.268069D+00  0.140661D+00  0.491162D+00
     19 -0.193422D+00 -0.235666D-01 -0.151182D+00  0.181347D+00
     20 -0.245101D-01 -0.507903D-01 -0.299789D-01  0.249432D-01  0.454885D-01
     21 -0.141232D+00 -0.369100D-01 -0.202290D+00  0.159553D+00  0.478317D-01
     22 -0.109535D+00  0.680791D-01  0.363787D-01  0.535579D-02 -0.187557D-01
     23  0.312318D-01 -0.147205D+00 -0.115862D+00  0.308228D-02 -0.708755D-02
     24 -0.411442D-01 -0.545913D-01 -0.149901D+00  0.513860D-02 -0.240420D-01
     25  0.319457D-01 -0.682968D-01 -0.546478D-01  0.448267D-02  0.121981D-01
     26 -0.598475D-01  0.439804D-01 -0.208624D-01  0.169963D-03 -0.881520D-03
     27 -0.484689D-01 -0.285830D-01 -0.519408D-01 -0.374958D-02 -0.515709D-02
               21            22            23            24            25 
     21  0.211337D+00
     22 -0.124641D-01  0.141798D+00
     23 -0.188308D-02 -0.114985D+00  0.234072D+00
     24 -0.996914D-02 -0.964773D-01  0.148546D+00  0.133529D+00
     25 -0.622004D-02  0.140933D-01  0.887931D-03  0.593462D-01 -0.292135D-01
     26 -0.243395D-02 -0.555335D-01 -0.332179D-01 -0.499353D-01  0.108845D+00
     27  0.117562D-02 -0.154539D-01  0.960623D-02 -0.384958D-01  0.679642D-01
               26            27 
     26 -0.174803D-01
     27  0.116210D-01  0.986321D-01
 Leave Link  716 at Wed Jan  6 21:25:12 2021, MaxMem=    33554432 cpu:         0.1
 (Enter /apps/applications/gaussian/G09.D01/2/default/g09/l9999.exe)
 1\1\GINC-DC1S0B3B\Freq\UB3LYP\3-21G\C3H5O1(2)\CHMRSH\06-Jan-2021\0\\#P
  b3lyp/3-21G scf=qc opt(calcall, ts, noeigentest, cartesian,maxcycle=1
 00)\\Gaussian input prepared by ASE\\0,2\C,-0.8633225057,0.9675270027,
 0.2681046534\C,-0.2275768191,-0.2871588517,-0.229679101\H,-0.405850006
 1,1.3737256602,1.1810869474\H,-1.9354584902,0.8140365475,0.4383902491\
 H,-0.7854588325,1.7398888495,-0.5137508107\C,1.0112881074,-0.804375819
 9,0.0965798636\H,1.7266782254,-0.6324118808,0.8899124715\O,1.299085583
 1,-1.7306848324,-0.8597855935\H,0.1806147376,-1.4405466751,-1.27085867
 99\\Version=ES64L-G09RevD.01\State=2-A\HF=-191.3278083\S2=0.759273\S2-
 1=0.\S2A=0.750019\RMSD=0.000e+00\RMSF=2.284e-06\ZeroPoint=0.0658799\Th
 ermal=0.0708554\Dipole=-0.0640012,0.6657212,0.4669607\DipoleDeriv=0.08
 55053,-0.0361256,0.0723883,0.1752779,-0.1965184,0.0206433,0.0479054,-0
 .0917449,0.1626852,-0.1937822,-0.0662734,-0.2865617,-0.3053978,0.14534
 61,0.0106246,-0.1820335,0.4030061,-0.4828064,-0.004024,0.0354449,-0.09
 70445,0.0381287,-0.0333964,-0.0750803,-0.0149143,-0.1595555,-0.0724693
 ,-0.0910364,-0.0141905,0.0281159,-0.0194169,0.0805077,-0.0247946,0.068
 4281,-0.062178,0.0656877,0.1172063,-0.0064845,0.0116038,0.0187642,0.03
 3357,0.0561832,0.0384703,0.0682699,-0.0119504,0.3293024,-0.1037134,0.3
 775403,-0.176573,0.1065567,-0.1898913,0.0091246,0.0053052,0.1098383,0.
 0522439,-0.0088715,-0.0721305,0.0393065,0.126799,-0.0469564,-0.1065278
 ,-0.0243619,0.0367126,-0.5528797,0.2489408,0.2830967,0.305877,-0.48543
 44,-0.0135548,0.2216776,-0.1634327,-0.0137118,0.2574644,-0.0487267,-0.
 3170084,-0.0759667,0.2227826,0.2628263,-0.0821303,0.0246918,0.2060141\
 Polar=38.6226188,-13.1657174,36.6307151,1.8283613,7.9973218,29.7964891
 \PG=C01 [X(C3H5O1)]\NImag=1\\0.53008852,0.02894819,0.44489438,0.009094
 93,0.00304870,0.49293826,-0.08051098,0.05648066,0.06290855,0.41299787,
 0.03312849,-0.14950388,-0.06363330,-0.22697117,0.34113312,0.03011431,-
 0.04013917,-0.03617398,-0.03015109,0.05423388,0.06513106,-0.09749659,-
 0.03702983,-0.08257529,0.00196459,0.00844833,0.00545462,0.10256030,-0.
 04158963,-0.07511456,-0.07947896,-0.00162804,-0.02094037,-0.02051090,0
 .03995163,0.08601775,-0.08940052,-0.07152365,-0.22095571,0.00082214,-0
 .00830276,-0.00487270,0.09889144,0.08408155,0.24154683,-0.29157951,-0.
 04328362,0.03726213,-0.01597806,0.00536132,0.00050260,-0.01347828,-0.0
 0240241,0.00243809,0.32388304,-0.04008049,-0.04856462,0.00235835,0.034
 04804,-0.00084836,-0.00729617,-0.01051637,-0.00281071,0.00298097,0.040
 84176,0.06107488,0.03790165,0.00052095,-0.05382894,0.00792498,0.003594
 91,-0.00531848,-0.02949275,-0.00400911,0.00513585,-0.04369091,-0.00318
 086,0.05719436,-0.04031940,-0.01116249,0.01074693,-0.00241461,0.012970
 40,-0.01197077,-0.00008616,0.01104709,-0.01151693,-0.00411927,-0.02606
 908,0.02530446,0.04814359,-0.01226984,-0.16542791,0.13212126,-0.003750
 41,-0.02452568,0.00701323,-0.00030235,0.00991362,-0.00853521,-0.001451
 44,-0.00465846,0.00432714,0.01230000,0.18536900,0.01550945,0.11780360,
 -0.16583692,-0.00718296,-0.00454255,0.00213723,0.00173975,0.02112694,-
 0.02087703,0.00029907,0.00456955,-0.00587406,-0.01552393,-0.13860183,0
 .18793699,-0.02342161,-0.00163582,-0.03743174,-0.24421835,0.11493107,-
 0.00360910,0.00763618,-0.00736821,-0.00240069,0.00135444,0.00246233,0.
 00174666,-0.00020446,0.00366014,0.00447079,0.52986497,0.03965746,-0.01
 181034,0.02718284,0.04979992,-0.11318822,-0.04614136,-0.00544956,0.005
 52399,0.00328479,-0.00114569,-0.00350459,-0.00180643,-0.00015418,-0.00
 485617,-0.00309619,-0.05892371,0.28184981,0.00677014,-0.01928507,0.004
 16671,-0.11100376,0.04416858,-0.09288658,0.00170461,0.00096828,0.00112
 229,0.00177911,0.00050554,0.00129106,0.00213139,-0.00031474,-0.0007237
 4,0.26806942,0.14066068,0.49116185,-0.00190029,-0.00045871,-0.00343290
 ,0.00322198,-0.00548098,-0.00788333,0.00063842,0.00031690,0.00055641,0
 .00012918,0.00028776,0.00040536,0.00014778,0.00070614,0.00059456,-0.19
 342222,-0.02356656,-0.15118184,0.18134668,-0.00180640,0.00145486,0.001
 08517,0.00850952,0.01224449,0.01116268,-0.00042492,-0.00051303,-0.0007
 6018,-0.00017982,-0.00001352,-0.00029079,0.00002609,0.00009811,0.00014
 941,-0.02451013,-0.05079029,-0.02997889,0.02494321,0.04548845,0.001580
 20,0.00110520,0.00227921,-0.00014243,-0.00800187,-0.00222060,-0.000798
 97,0.00072359,0.00015629,-0.00008703,0.00000076,-0.00008885,-0.0001880
 9,-0.00043230,-0.00037936,-0.14123226,-0.03691001,-0.20228978,0.159552
 73,0.04783167,0.21133662,0.00479299,0.00885344,-0.00812604,-0.05806773
 ,0.10513880,0.09305473,0.00102153,0.00302441,0.00101909,0.00087938,-0.
 00077090,0.00017146,-0.00033813,0.00494943,0.00189735,-0.10953463,0.06
 807912,0.03637869,0.00535579,-0.01875570,-0.01246411,0.14179754,-0.001
 54731,-0.00170217,-0.00426209,0.07826612,-0.04141147,-0.03488216,0.001
 37471,-0.00179882,-0.00083142,0.00103522,-0.00058365,-0.00015470,0.000
 65434,-0.00106594,-0.00027676,0.03123182,-0.14720462,-0.11586201,0.003
 08228,-0.00708755,-0.00188308,-0.11498512,0.23407208,-0.01231004,0.004
 35945,-0.02125505,0.07771615,-0.02456574,0.08386073,0.00524830,-0.0034
 2127,-0.00187166,0.00141600,0.00019296,0.00104645,0.00106626,0.0034572
 1,0.00305622,-0.04114417,-0.05459132,-0.14990096,0.00513860,-0.0240419
 8,-0.00996914,-0.09647727,0.14854599,0.13352923,0.00034688,-0.00071181
 ,0.01155344,-0.01699470,-0.04752626,-0.07551197,-0.00275998,-0.0013517
 5,-0.00040903,-0.00109092,-0.00020304,-0.00027091,-0.00080934,-0.00384
 167,-0.00180407,0.03194569,-0.06829678,-0.05464776,0.00448267,0.012198
 14,-0.00622004,0.01409326,0.00088793,0.05934616,-0.02921355,-0.0044404
 6,0.00577425,-0.01842197,0.00524536,-0.00295962,0.07655997,0.00394836,
 -0.00027787,-0.00039408,0.00122469,-0.00009096,0.00099889,0.00038783,0
 .00515344,0.00286781,-0.05984749,0.04398043,-0.02086236,0.00016996,-0.
 00088152,-0.00243395,-0.05553349,-0.03321786,-0.04993530,0.10884524,-0
 .01748028,0.00073989,0.00410998,-0.00133356,-0.00089157,0.00704885,-0.
 00965668,-0.00017171,0.00051989,0.00061585,0.00008094,-0.00013110,0.00
 044263,-0.00004933,0.00096524,0.00056069,-0.04846890,-0.02858299,-0.05
 194084,-0.00374958,-0.00515709,0.00117562,-0.01545390,0.00960623,-0.03
 849583,0.06796418,0.01162100,0.09863212\\0.00000075,-0.00000069,0.0000
 0391,0.00000034,0.00000133,-0.00000157,-0.00000045,-0.00000273,0.00000
 332,-0.00000048,-0.00000011,-0.00000015,0.00000176,0.00000189,0.000003
 03,-0.00000138,-0.00000224,-0.00000080,-0.00000147,-0.00000331,0.00000
 126,0.00000014,0.00000310,-0.00000603,0.00000079,0.00000277,-0.0000029
 6\\\@


 K N O W I N G  IS A BARRIER WHICH PREVENTS LEARNING

                     -- TEACHING OF THE BENE GESSERIT
 Job cpu time:       0 days  0 hours 10 minutes 53.6 seconds.
 File lengths (MBytes):  RWF=      9 Int=      0 D2E=      0 Chk=      1 Scr=      1
 Normal termination of Gaussian 09 at Wed Jan  6 21:25:12 2021.
