9
Properties=species:S:1:pos:R:3:momenta:R:3:forces:R:3 pbc="F F F"
C       -0.84657425       0.94597549       0.21775424       0.07962272       0.48035300      -1.03699250       0.00235945      -0.01513379      -0.00392957
C       -0.10576427      -0.25233698      -0.05368232      -0.97673750       0.67269739      -0.64295149       2.10169202      -1.87023416      -0.05852698
H       -0.43138417       1.54947730       1.03989014      -0.33089728      -0.32765480       0.26119639       0.00623542      -0.00536194       0.00247890
H       -1.89710371       0.70787347       0.46676497      -0.09902639       0.01226563       0.51364086       0.01845355      -0.02308070       0.02665222
H       -0.88651728       1.59650056      -0.67547619      -0.03786135      -0.00461800       0.39704687       0.03736881      -0.00396195       0.01236922
C        1.08952662      -0.86661497       0.20221521       0.69347139      -0.79437877      -1.07088812       0.02234965       0.02115655       0.02066346
H        1.80836147      -0.93538745       0.99133874       0.00765424       0.00549213      -0.22759433      -0.00541603      -0.01570929       0.01396736
O        1.23595384      -1.59511214      -0.90580933      -1.74651218       1.10416574       0.16242800       1.52030036       0.65131951       2.24071431
H        0.03350175      -1.15037527      -1.28299546      -0.19837914       0.73487749       0.14470323      -3.70334323       1.26100577      -2.25438893
