17
Properties=species:S:1:pos:R:3 energy=-10461.46363016598 pbc="F F F"
C        1.06560900       0.14170800      -0.33192900
H        0.42028800      -0.45091300       0.28134800
H        0.62281800       0.93705000      -0.89179600
C        2.51839000      -0.07581800      -0.36910700
C        2.98127700      -1.38997900       0.27351100
C        2.65798400      -2.57974800      -0.59359600
O        3.47830500      -3.23428700      -1.18575000
C        1.15182100      -2.94518100      -0.67520300
O        0.56122900      -3.31573700       0.30772300
C        0.55866900      -2.79287700      -2.03446500
H        2.89891700      -0.01078900      -1.41388900
H        3.01547100       0.77432900       0.16129700
H        4.07722500      -1.35627200       0.45502000
H        2.51465700      -1.52118100       1.27489600
H        0.54603900      -1.73975500      -2.35426200
H        1.13224100      -3.35455500      -2.78975900
H       -0.47913100      -3.15871400      -2.06794900
