 Entering Gaussian System, Link 0=g09
 Initial command:
 /cm/shared/apps/Gaussian09/g09/l1.exe "/local/Gau-59085.inp" -scrdir="/local/"
 Entering Link 1 = /cm/shared/apps/Gaussian09/g09/l1.exe PID=     59086.
  
 Copyright (c) 1988,1990,1992,1993,1995,1998,2003,2009,2013,
            Gaussian, Inc.  All Rights Reserved.
  
 This is part of the Gaussian(R) 09 program.  It is based on
 the Gaussian(R) 03 system (copyright 2003, Gaussian, Inc.),
 the Gaussian(R) 98 system (copyright 1998, Gaussian, Inc.),
 the Gaussian(R) 94 system (copyright 1995, Gaussian, Inc.),
 the Gaussian 92(TM) system (copyright 1992, Gaussian, Inc.),
 the Gaussian 90(TM) system (copyright 1990, Gaussian, Inc.),
 the Gaussian 88(TM) system (copyright 1988, Gaussian, Inc.),
 the Gaussian 86(TM) system (copyright 1986, Carnegie Mellon
 University), and the Gaussian 82(TM) system (copyright 1983,
 Carnegie Mellon University). Gaussian is a federally registered
 trademark of Gaussian, Inc.
  
 This software contains proprietary and confidential information,
 including trade secrets, belonging to Gaussian, Inc.
  
 This software is provided under written license and may be
 used, copied, transmitted, or stored only in accord with that
 written license.
  
 The following legend is applicable only to US Government
 contracts under FAR:
  
                    RESTRICTED RIGHTS LEGEND
  
 Use, reproduction and disclosure by the US Government is
 subject to restrictions as set forth in subparagraphs (a)
 and (c) of the Commercial Computer Software - Restricted
 Rights clause in FAR 52.227-19.
  
 Gaussian, Inc.
 340 Quinnipiac St., Bldg. 40, Wallingford CT 06492
  
  
 ---------------------------------------------------------------
 Warning -- This program may not be used in any manner that
 competes with the business of Gaussian, Inc. or will provide
 assistance to any competitor of Gaussian, Inc.  The licensee
 of this program is prohibited from giving any competitor of
 Gaussian, Inc. access to this program.  By using this program,
 the user acknowledges that Gaussian, Inc. is engaged in the
 business of creating and licensing software in the field of
 computational chemistry and represents and warrants to the
 licensee that it is not a competitor of Gaussian, Inc. and that
 it will not use this program in any manner prohibited above.
 ---------------------------------------------------------------
  

 Cite this work as:
 Gaussian 09, Revision D.01,
 M. J. Frisch, G. W. Trucks, H. B. Schlegel, G. E. Scuseria, 
 M. A. Robb, J. R. Cheeseman, G. Scalmani, V. Barone, B. Mennucci, 
 G. A. Petersson, H. Nakatsuji, M. Caricato, X. Li, H. P. Hratchian, 
 A. F. Izmaylov, J. Bloino, G. Zheng, J. L. Sonnenberg, M. Hada, 
 M. Ehara, K. Toyota, R. Fukuda, J. Hasegawa, M. Ishida, T. Nakajima, 
 Y. Honda, O. Kitao, H. Nakai, T. Vreven, J. A. Montgomery, Jr., 
 J. E. Peralta, F. Ogliaro, M. Bearpark, J. J. Heyd, E. Brothers, 
 K. N. Kudin, V. N. Staroverov, T. Keith, R. Kobayashi, J. Normand, 
 K. Raghavachari, A. Rendell, J. C. Burant, S. S. Iyengar, J. Tomasi, 
 M. Cossi, N. Rega, J. M. Millam, M. Klene, J. E. Knox, J. B. Cross, 
 V. Bakken, C. Adamo, J. Jaramillo, R. Gomperts, R. E. Stratmann, 
 O. Yazyev, A. J. Austin, R. Cammi, C. Pomelli, J. W. Ochterski, 
 R. L. Martin, K. Morokuma, V. G. Zakrzewski, G. A. Voth, 
 P. Salvador, J. J. Dannenberg, S. Dapprich, A. D. Daniels, 
 O. Farkas, J. B. Foresman, J. V. Ortiz, J. Cioslowski, 
 and D. J. Fox, Gaussian, Inc., Wallingford CT, 2013.
 
 ******************************************
 Gaussian 09:  ES64L-G09RevD.01 24-Apr-2013
                23-Feb-2021 
 ******************************************
 %nprocshared=1
 Will use up to    1 processors via shared memory.
 ----------------------------------------------------------------------
 #P pm6 scf=qc opt(calcall, ts, noeigentest, cartesian,maxcycle=100) No
 Symm
 ----------------------------------------------------------------------
 1/5=1,6=100,10=4,11=1,14=-1,18=10,26=1,38=1/1,3;
 2/12=2,15=1,17=6,18=5,29=2,40=1/2;
 3/5=2,16=1,25=1,41=3900000,71=2,140=1/1,2,3;
 4/35=1/1;
 5/5=2,8=3,35=1,38=5/8;
 8/6=4,10=90,11=11/1;
 11/6=1,8=1,9=11,15=111,16=1,31=1/1,2,10;
 10/6=1,31=1/2;
 6/7=2,8=2,9=2,10=2,18=1,28=1/1;
 7/7=1,10=1,25=1,30=1/1,2,3,16;
 1/5=1,6=100,10=4,11=1,14=-1,18=10,26=1/3(3);
 2/15=1,29=1/2;
 7/7=1,8=1,9=1,25=1,30=1,44=-1/16;
 99/12=1/99;
 2/15=1,29=1/2;
 3/5=2,16=1,25=1,41=3900000,71=2,135=20,140=1/1,2,3;
 4/5=5,16=3,35=1/1;
 5/5=2,8=3,35=1,38=5/8;
 8/6=4,10=90,11=11/1;
 11/6=1,8=1,9=11,15=111,16=1,31=1/1,2,10;
 10/6=1,31=1/2;
 7/7=1,10=1,25=1,30=1/1,2,3,16;
 1/5=1,6=100,10=4,11=1,14=-1,18=10,26=1/3(-8);
 2/15=1,29=1/2;
 6/7=2,8=2,9=2,10=2,18=1,19=2,28=1/1;
 7/7=1,8=1,9=1,25=1,30=1,44=-1/16;
 99/12=1/99;
 Leave Link    1 at Tue Feb 23 12:28:06 2021, MaxMem=           0 cpu:         0.0
 (Enter /cm/shared/apps/Gaussian09/g09/l101.exe)
 ------------------------------
 Gaussian input prepared by ASE
 ------------------------------
 Symbolic Z-matrix:
 Charge =  0 Multiplicity = 1
 O                     0.60057   1.29417  -1.22265 
 O                     0.50686  -0.26481  -2.35375 
 C                     1.14443  -1.00259  -1.75256 
 O                     1.92813  -1.58515  -0.94196 
 C                     2.29891  -0.73033   0.29015 
 C                     1.25067  -0.95528   1.3531 
 C                     0.08463   0.02362   1.24552 
 C                    -1.15324  -0.58118   0.65147 
 O                    -1.25111  -1.72353   0.26563 
 C                    -2.31258   0.43594   0.47975 
 O                    -3.05452   0.68177   1.3973 
 C                    -2.32232   1.04709  -0.86858 
 H                     0.70952   2.07843  -1.68738 
 H                     3.27927  -1.19326   0.49167 
 H                     2.37054   0.3242   -0.05971 
 H                     0.86743  -2.0058    1.29824 
 H                     1.72518  -0.87792   2.35536 
 H                    -0.14813   0.48809   2.22349 
 H                     0.3681    0.90954   0.56744 
 H                    -2.94164   1.9504   -0.91678 
 H                    -1.2675    1.3348   -1.17931 
 H                    -2.68319   0.35179  -1.63644 
 
 NAtoms=     22 NQM=       22 NQMF=       0 NMMI=      0 NMMIF=      0
                NMic=       0 NMicF=      0.
                    Isotopes and Nuclear Properties:
 (Nuclear quadrupole moments (NQMom) in fm**2, nuclear magnetic moments (NMagM)
  in nuclear magnetons)

  Atom         1           2           3           4           5           6           7           8           9          10
 IAtWgt=          16          16          12          16          12          12          12          12          16          12
 AtmWgt=  15.9949146  15.9949146  12.0000000  15.9949146  12.0000000  12.0000000  12.0000000  12.0000000  15.9949146  12.0000000
 NucSpn=           0           0           0           0           0           0           0           0           0           0
 AtZEff=   0.0000000   0.0000000   0.0000000   0.0000000   0.0000000   0.0000000   0.0000000   0.0000000   0.0000000   0.0000000
 NQMom=    0.0000000   0.0000000   0.0000000   0.0000000   0.0000000   0.0000000   0.0000000   0.0000000   0.0000000   0.0000000
 NMagM=    0.0000000   0.0000000   0.0000000   0.0000000   0.0000000   0.0000000   0.0000000   0.0000000   0.0000000   0.0000000
 AtZNuc=   8.0000000   8.0000000   6.0000000   8.0000000   6.0000000   6.0000000   6.0000000   6.0000000   8.0000000   6.0000000

  Atom        11          12          13          14          15          16          17          18          19          20
 IAtWgt=          16          12           1           1           1           1           1           1           1           1
 AtmWgt=  15.9949146  12.0000000   1.0078250   1.0078250   1.0078250   1.0078250   1.0078250   1.0078250   1.0078250   1.0078250
 NucSpn=           0           0           1           1           1           1           1           1           1           1
 AtZEff=   0.0000000   0.0000000   0.0000000   0.0000000   0.0000000   0.0000000   0.0000000   0.0000000   0.0000000   0.0000000
 NQMom=    0.0000000   0.0000000   0.0000000   0.0000000   0.0000000   0.0000000   0.0000000   0.0000000   0.0000000   0.0000000
 NMagM=    0.0000000   0.0000000   2.7928460   2.7928460   2.7928460   2.7928460   2.7928460   2.7928460   2.7928460   2.7928460
 AtZNuc=   8.0000000   6.0000000   1.0000000   1.0000000   1.0000000   1.0000000   1.0000000   1.0000000   1.0000000   1.0000000

  Atom        21          22
 IAtWgt=           1           1
 AtmWgt=   1.0078250   1.0078250
 NucSpn=           1           1
 AtZEff=   0.0000000   0.0000000
 NQMom=    0.0000000   0.0000000
 NMagM=    2.7928460   2.7928460
 AtZNuc=   1.0000000   1.0000000
 Leave Link  101 at Tue Feb 23 12:28:06 2021, MaxMem=    33554432 cpu:         0.1
 (Enter /cm/shared/apps/Gaussian09/g09/l103.exe)

 GradGradGradGradGradGradGradGradGradGradGradGradGradGradGradGradGradGrad
 Berny optimization.
 Initialization pass.
 No Z-matrix variables, so optimization will use Cartesian coordinates.
 Trust Radius=3.00D-01 FncErr=1.00D-07 GrdErr=1.00D-07
 Number of steps in this run=    100 maximum allowed number of steps=    132.
 Search for a saddle point of order  1.
 GradGradGradGradGradGradGradGradGradGradGradGradGradGradGradGradGradGrad

 Leave Link  103 at Tue Feb 23 12:28:06 2021, MaxMem=    33554432 cpu:         0.0
 (Enter /cm/shared/apps/Gaussian09/g09/l202.exe)
 ---------------------------------------------------------------------------------------------------
                            Z-MATRIX (ANGSTROMS AND DEGREES)
   CD    Cent   Atom    N1       Length/X        N2       Alpha/Y        N3        Beta/Z          J
 ---------------------------------------------------------------------------------------------------
      1      1  O        0   0.600574          1.294172         -1.222654
      2      2  O        0   0.506856         -0.264806         -2.353749
      3      3  C        0   1.144427         -1.002589         -1.752555
      4      4  O        0   1.928128         -1.585147         -0.941962
      5      5  C        0   2.298906         -0.730330          0.290146
      6      6  C        0   1.250674         -0.955276          1.353096
      7      7  C        0   0.084628          0.023621          1.245523
      8      8  C        0  -1.153239         -0.581180          0.651474
      9      9  O        0  -1.251111         -1.723529          0.265628
     10     10  C        0  -2.312585          0.435938          0.479748
     11     11  O        0  -3.054516          0.681769          1.397300
     12     12  C        0  -2.322320          1.047087         -0.868578
     13     13  H        0   0.709525          2.078428         -1.687383
     14     14  H        0   3.279269         -1.193256          0.491672
     15     15  H        0   2.370545          0.324197         -0.059709
     16     16  H        0   0.867426         -2.005799          1.298242
     17     17  H        0   1.725176         -0.877919          2.355364
     18     18  H        0  -0.148134          0.488086          2.223492
     19     19  H        0   0.368101          0.909539          0.567439
     20     20  H        0  -2.941638          1.950396         -0.916784
     21     21  H        0  -1.267502          1.334803         -1.179314
     22     22  H        0  -2.683191          0.351794         -1.636435
 ---------------------------------------------------------------------------------------------------
                         Z-Matrix orientation:                         
 ---------------------------------------------------------------------
 Center     Atomic      Atomic             Coordinates (Angstroms)
 Number     Number       Type             X           Y           Z
 ---------------------------------------------------------------------
      1          8           0        0.600574    1.294172   -1.222654
      2          8           0        0.506856   -0.264806   -2.353749
      3          6           0        1.144427   -1.002589   -1.752555
      4          8           0        1.928128   -1.585147   -0.941962
      5          6           0        2.298906   -0.730330    0.290146
      6          6           0        1.250674   -0.955276    1.353096
      7          6           0        0.084628    0.023621    1.245523
      8          6           0       -1.153239   -0.581180    0.651474
      9          8           0       -1.251111   -1.723529    0.265628
     10          6           0       -2.312585    0.435938    0.479748
     11          8           0       -3.054516    0.681769    1.397300
     12          6           0       -2.322320    1.047087   -0.868578
     13          1           0        0.709525    2.078428   -1.687383
     14          1           0        3.279269   -1.193256    0.491672
     15          1           0        2.370545    0.324197   -0.059709
     16          1           0        0.867426   -2.005799    1.298242
     17          1           0        1.725176   -0.877919    2.355364
     18          1           0       -0.148134    0.488086    2.223492
     19          1           0        0.368101    0.909539    0.567439
     20          1           0       -2.941638    1.950396   -0.916784
     21          1           0       -1.267502    1.334803   -1.179314
     22          1           0       -2.683191    0.351794   -1.636435
 ---------------------------------------------------------------------
                    Distance matrix (angstroms):
                    1          2          3          4          5
     1  O    0.000000
     2  O    1.928360   0.000000
     3  C    2.419025   1.145537   0.000000
     4  O    3.183028   2.399262   1.269103   0.000000
     5  C    3.044914   3.227745   2.362113   1.544760   0.000000
     6  C    3.480968   3.843269   3.107828   2.474464   1.509719
     7  C    2.823544   3.635413   3.341369   3.282029   2.526699
     8  C    3.178862   3.447808   3.352046   3.611345   3.474206
     9  O    3.840604   3.475551   3.214252   3.403671   3.686416
    10  C    3.481556   4.058201   4.359297   4.908124   4.760459
    11  O    4.538599   5.258303   5.512692   5.952965   5.646144
    12  C    2.954612   3.454133   4.123217   5.000035   5.085035
    13  H    0.918095   2.444557   3.112242   3.932229   3.784953
    14  H    4.037526   4.079793   3.103298   2.008599   1.102735
    15  H    2.329397   3.013782   2.475774   2.149349   1.113354
    16  H    4.161242   4.061786   3.223433   2.514070   2.166152
    17  H    4.334158   4.902648   4.150640   3.378420   2.148504
    18  H    3.617494   4.684762   4.438668   4.316163   3.348189
    19  H    1.845649   3.151457   3.105043   3.306877   2.548346
    20  H    3.615446   4.343282   5.110241   6.017916   6.008849
    21  H    1.869020   2.662028   3.407258   4.335262   4.375312
    22  H    3.441279   3.327332   4.061834   5.049583   5.450137
                    6          7          8          9         10
     6  C    0.000000
     7  C    1.526261   0.000000
     8  C    2.531999   1.500331   0.000000
     9  O    2.834030   2.407680   1.209718   0.000000
    10  C    3.923649   2.550107   1.551805   2.415754   0.000000
    11  O    4.606141   3.210985   2.401281   3.212228   1.205320
    12  C    4.659568   3.363079   2.515663   3.179657   1.480399
    13  H    4.329054   3.635197   4.001706   4.702469   4.065387
    14  H    2.216728   3.500686   4.477421   4.566905   5.824366
    15  H    2.210697   2.649413   3.707093   4.173178   4.715422
    16  H    1.119592   2.175798   2.555570   2.373640   4.092002
    17  H    1.111610   2.176217   3.358060   3.733676   4.641946
    18  H    2.190331   1.107398   2.150537   3.152940   2.779966
    19  H    2.207652   1.151089   2.131615   3.105798   2.723612
    20  H    5.583079   4.188833   3.473712   4.213514   2.153972
    21  H    4.242496   3.070389   2.652514   3.382532   2.156999
    22  H    5.110873   4.009265   2.906152   3.158427   2.150038
                   11         12         13         14         15
    11  O    0.000000
    12  C    2.409101   0.000000
    13  H    5.062995   3.305478   0.000000
    14  H    6.667286   6.184433   4.696357   0.000000
    15  H    5.628678   4.816619   2.913011   1.852691   0.000000
    16  H    4.755467   4.918302   5.061600   2.669788   3.087439
    17  H    5.118200   5.521021   5.110316   2.447037   2.773835
    18  H    3.027733   3.821055   4.308097   4.192040   3.403470
    19  H    3.529144   3.052774   2.562633   3.591989   2.178468
    20  H    2.641428   1.096288   3.733792   7.110975   5.621244
    21  H    3.202938   1.136653   2.172497   5.464101   3.938302
    22  H    3.074137   1.096935   3.807148   6.516666   5.294060
                   16         17         18         19         20
    16  H    0.000000
    17  H    1.767868   0.000000
    18  H    2.847264   2.322208   0.000000
    19  H    3.046735   2.869379   1.785114   0.000000
    20  H    5.921722   6.362819   4.450095   3.773681   0.000000
    21  H    4.675021   5.132856   3.680897   2.430472   1.802944
    22  H    5.174694   6.072920   4.619971   3.805066   1.772068
                   21         22
    21  H    0.000000
    22  H    1.783099   0.000000
 Symmetry turned off by external request.
 Stoichiometry    C7H10O5
 Framework group  C1[X(C7H10O5)]
 Deg. of freedom    60
 Full point group                 C1      NOp   1
 Rotational constants (GHZ):      1.3834984      0.7071739      0.5885985
 Leave Link  202 at Tue Feb 23 12:28:06 2021, MaxMem=    33554432 cpu:         0.0
 (Enter /cm/shared/apps/Gaussian09/g09/l301.exe)
 Standard basis: VSTO-6G (5D, 7F)
 Ernie: Thresh=  0.10000D-02 Tol=  0.10000D-05 Strict=F.
  NNHCO=     0 NNPyr=     0 NCTC=     0               EPep=         0.000000000
    EC=       361.108061737  ECS=         4.736376690   EG=         0.359117354
   EHC=         0.002485676  EAt=       -86.526901464  AtH=         3.211178636
 EPDDG=         0.000000000  ECC=       366.206041456 EAtT=        89.738080100
    58 basis functions,   348 primitive gaussians,    58 cartesian basis functions
    34 alpha electrons       34 beta electrons
       nuclear repulsion energy       455.9441215562 Hartrees.
 IExCor=    0 DFT=F Ex=HF Corr=None ExCW=0 ScaHFX=  1.000000
 ScaDFX=  1.000000  1.000000  1.000000  1.000000 ScalE2=  1.000000  1.000000
 IRadAn=      0 IRanWt=     -1 IRanGd=            0 ICorTp=0 IEmpDi=  4
 Integral buffers will be    131072 words long.
 Regular integral format.
 Two-electron integral symmetry is turned off.
 Leave Link  301 at Tue Feb 23 12:28:06 2021, MaxMem=    33554432 cpu:         0.0
 (Enter /cm/shared/apps/Gaussian09/g09/l302.exe)
 Do NDO integrals.
 NPDir=0 NMtPBC=     1 NCelOv=     1 NCel=       1 NClECP=     1 NCelD=      1
         NCelK=      1 NCelE2=     1 NClLst=     1 CellRange=     0.0.
 One-electron integrals computed using PRISM.
 NBasis=    58 RedAO= F EigKep=  0.00D+00  NBF=    58
 NBsUse=    58 1.00D-04 EigRej=  0.00D+00 NBFU=    58
 Leave Link  302 at Tue Feb 23 12:28:06 2021, MaxMem=    33554432 cpu:         0.1
 (Enter /cm/shared/apps/Gaussian09/g09/l303.exe)
 DipDrv:  MaxL=1.
 Leave Link  303 at Tue Feb 23 12:28:06 2021, MaxMem=    33554432 cpu:         0.0
 (Enter /cm/shared/apps/Gaussian09/g09/l401.exe)
 Simple Huckel Guess.
 JPrj=0 DoOrth=F DoCkMO=F.
 Leave Link  401 at Tue Feb 23 12:28:06 2021, MaxMem=    33554432 cpu:         0.0
 (Enter /cm/shared/apps/Gaussian09/g09/l508.exe)
 Direct SCF.
 Tight linear equation convergence will be used.
 RPM6 wavefunction.
 Quadratic Convergence SCF Method.
 Line search only if initial step raises energy.
 Two-electron integral symmetry not used.
 ReadGW:  IGet=1 IStart=       59293 Next=       59293 LGW=           0.
 Keep J ints in memory in canonical form, NReq=910647.
 FoFCou: FMM=F IPFlag=           0 FMFlag=           0 FMFlg1=           0
         NFxFlg=           0 DoJE=F BraDBF=F KetDBF=F FulRan=T
         wScrn=  0.000000 ICntrl=     600 IOpCl=  2 I1Cent=           0 NGrid=           0
         NMat0=    1 NMatS0=    130 NMatT0=    0 NMatD0=    1 NMtDS0=    0 NMtDT0=    0
 Symmetry not used in FoFCou.
 Iteration   1 EE= 0.439934243929997                                    Grad=5.352D-01 Max rot=    4.5287 deg.
 Gradient too large for Newton-Raphson -- use scaled steepest descent instead.
 Alpha Gap=     0.359 HL deriv= 3.33D-02
     ILin= 1 X=0.000D+00 Y= 4.399342439300D-01 DE= 0.00D+00 F= -7.42D-01
     ILin= 2 X=3.000D-01 Y= 2.366969297955D-01 DE=-2.03D-01 F= -6.11D-01
     ILin= 3 X=4.000D-01 Y= 1.778852565730D-01 DE=-2.62D-01 F= -5.65D-01
     ILin= 4 X=7.000D-01 Y= 3.009100134028D-02 DE=-4.10D-01 F= -4.18D-01
     ILin= 5 X=1.000D+00 Y=-7.196503525745D-02 DE=-5.12D-01 F= -2.60D-01
     ILin= 6 X=1.400D+00 Y=-1.309524836023D-01 DE=-5.71D-01 F= -3.18D-02
     ILin= 7 X=2.100D+00 Y=-3.216199421274D-03 DE=-4.43D-01 F=  4.02D-01
     An  expanding polynomial of degree  7 produced  1.4535
     Minimum is close to point  6 DX=  5.35D-02 DF= -8.53D-04 DXR=  3.68D-02 DFR=  1.49D-03 which will be used.
 Iteration   2 EE=-0.130952483602300     Delta-E=       -0.570886727532 Grad=1.921D-01 Max rot=    2.0598 deg.
 Gradient too large for Newton-Raphson -- use scaled steepest descent instead.
 Alpha Gap=     0.366 HL deriv= 9.20D-03
     ILin= 1 X=0.000D+00 Y=-1.309524836023D-01 DE= 0.00D+00 F= -9.61D-02
     ILin= 2 X=7.000D-01 Y=-1.772288333770D-01 DE=-4.63D-02 F= -3.61D-02
     ILin= 3 X=1.200D+00 Y=-1.845170433792D-01 DE=-5.36D-02 F=  6.87D-03
     Accept linear search using points  2 and  3.
     An  expanding polynomial of degree  3 produced  1.0029
 Iteration   3 EE=-0.184206915533025     Delta-E=       -0.053254431931 Grad=7.236D-02 Max rot=    0.7874 deg.
 Gradient too large for Newton-Raphson -- use scaled steepest descent instead.
 Alpha Gap=     0.367 HL deriv= 5.32D-03
     ILin= 1 X=0.000D+00 Y=-1.842069155330D-01 DE= 0.00D+00 F= -1.51D-02
     ILin= 2 X=1.200D+00 Y=-1.948439593282D-01 DE=-1.06D-02 F= -2.56D-03
     Reject lnstep minimum 1.315D+00 FVal=-1.949689907039D-01 Lims=  0.00D+00  1.20D+00
     ILin= 3 X=2.200D+00 Y=-1.920200672012D-01 DE=-7.81D-03 F=  8.26D-03
     An  expanding polynomial of degree  3 produced  1.4342
 Iteration   4 EE=-0.195150281514032     Delta-E=       -0.010943365981 Grad=3.866D-02 Max rot=    0.4380 deg.
 Gradient too large for Newton-Raphson -- use scaled steepest descent instead.
 Alpha Gap=     0.366 HL deriv= 2.87D-03
     ILin= 1 X=0.000D+00 Y=-1.951502815140D-01 DE= 0.00D+00 F= -4.53D-03
     ILin= 2 X=1.200D+00 Y=-1.973969373244D-01 DE=-2.25D-03 F=  7.54D-04
     Accept linear search using points  1 and  2.
     An  expanding polynomial of degree  2 produced  1.0764
 Iteration   5 EE=-0.197457061638659     Delta-E=       -0.002306780125 Grad=1.794D-02 Max rot=    0.3525 deg.
 Gradient too large for Newton-Raphson -- use scaled steepest descent instead.
 Alpha Gap=     0.366 HL deriv= 1.38D-03
     ILin= 1 X=0.000D+00 Y=-1.974570616387D-01 DE= 0.00D+00 F= -1.14D-03
     ILin= 2 X=1.200D+00 Y=-1.982193414119D-01 DE=-7.62D-04 F= -1.30D-04
     Reject lnstep minimum 1.280D+00 FVal=-1.982237118541D-01 Lims=  0.00D+00  1.20D+00
     ILin= 3 X=2.500D+00 Y=-1.976662005261D-01 DE=-2.09D-04 F=  9.85D-04
     An  expanding polynomial of degree  3 produced  1.3486
 Iteration   6 EE=-0.198229287621246     Delta-E=       -0.000772225983 Grad=1.284D-02 Max rot=    0.1374 deg.
 Gradient too large for Newton-Raphson -- use scaled steepest descent instead.
 Alpha Gap=     0.366 HL deriv= 1.11D-03
     ILin= 1 X=0.000D+00 Y=-1.982292876212D-01 DE= 0.00D+00 F= -5.16D-04
     ILin= 2 X=1.200D+00 Y=-1.985407263693D-01 DE=-3.11D-04 F= -4.10D-06
     Reject lnstep minimum 1.206D+00 FVal=-1.985407362246D-01 Lims=  0.00D+00  1.20D+00
     ILin= 3 X=2.400D+00 Y=-1.982417674993D-01 DE=-1.25D-05 F=  5.01D-04
     An  expanding polynomial of degree  3 produced  1.2123
     Minimum is close to point  2 DX=  1.23D-02 DF= -3.19D-08 DXR=  1.01D-02 DFR=  1.02D-04 which will be used.
 Iteration   7 EE=-0.198540726369288     Delta-E=       -0.000311438748 Grad=7.267D-03 Max rot=    0.1522 deg.
 QCNR:  CnvC1=4.04D-09 CnvC2=4.04D-08
 LinEq1:  Iter=  0 NonCon=     1 RMS=4.89D-04 Max=1.06D-02 NDo=     1
 AX will form     1 AO Fock derivatives at one time.
 LinEq1:  Iter=  1 NonCon=     1 RMS=1.34D-04 Max=1.16D-03 NDo=     1
 LinEq1:  Iter=  2 NonCon=     1 RMS=1.68D-05 Max=1.62D-04 NDo=     1
 LinEq1:  Iter=  3 NonCon=     1 RMS=3.03D-06 Max=3.41D-05 NDo=     1
 LinEq1:  Iter=  4 NonCon=     1 RMS=5.79D-07 Max=6.59D-06 NDo=     1
 LinEq1:  Iter=  5 NonCon=     1 RMS=1.05D-07 Max=9.05D-07 NDo=     1
 LinEq1:  Iter=  6 NonCon=     1 RMS=1.97D-08 Max=1.16D-07 NDo=     1
 LinEq1:  Iter=  7 NonCon=     0 RMS=3.21D-09 Max=2.01D-08 NDo=     1
 Linear equations converged to 4.040D-09 4.040D-08 after     7 iterations.
 Angle between quadratic step and gradient=  37.31 degrees.
     ILin= 1 X=0.000D+00 Y=-1.985407263693D-01 DE= 0.00D+00 F= -5.10D-04
     ILin= 2 X=1.000D+00 Y=-1.987905167808D-01 DE=-2.50D-04 F=  1.56D-05
     Accept linear search using points  1 and  2.
     An  expanding polynomial of degree  2 produced  0.9712
     Minimum is close to point  2 DX= -2.88D-02 DF= -2.24D-07 DXR=  2.97D-02 DFR=  8.98D-04 which will be used.
 Iteration   8 EE=-0.198790516780775     Delta-E=       -0.000249790411 Grad=2.782D-04 Max rot=    0.0072 deg.
 QCNR:  CnvC1=2.78D-09 CnvC2=2.78D-08
 LinEq1:  Iter=  0 NonCon=     1 RMS=2.04D-05 Max=4.72D-04 NDo=     1
 LinEq1:  Iter=  1 NonCon=     1 RMS=4.63D-06 Max=3.96D-05 NDo=     1
 LinEq1:  Iter=  2 NonCon=     1 RMS=1.07D-06 Max=1.01D-05 NDo=     1
 LinEq1:  Iter=  3 NonCon=     1 RMS=1.57D-07 Max=1.54D-06 NDo=     1
 LinEq1:  Iter=  4 NonCon=     1 RMS=2.92D-08 Max=4.31D-07 NDo=     1
 LinEq1:  Iter=  5 NonCon=     1 RMS=5.26D-09 Max=5.80D-08 NDo=     1
 LinEq1:  Iter=  6 NonCon=     0 RMS=8.50D-10 Max=5.78D-09 NDo=     1
 Linear equations converged to 2.782D-09 2.782D-08 after     6 iterations.
 Angle between quadratic step and gradient=  36.18 degrees.
     ILin= 1 X=0.000D+00 Y=-1.987905167808D-01 DE= 0.00D+00 F= -6.36D-07
     ILin= 2 X=1.000D+00 Y=-1.987908349949D-01 DE=-3.18D-07 F= -1.05D-09
     Reject lnstep minimum 1.002D+00 FVal=-1.987908349958D-01 Lims=  0.00D+00  1.00D+00
     ILin= 3 X=2.000D+00 Y=-1.987905195806D-01 DE=-2.80D-09 F=  6.32D-07
     An  expanding polynomial of degree  3 produced  1.0022
     Minimum is close to point  2 DX=  2.21D-03 DF= -1.55D-12 DXR=  2.20D-03 DFR=  4.86D-06 which will be used.
 Iteration   9 EE=-0.198790834994895     Delta-E=       -0.000000318214 Grad=5.761D-07 Max rot=    0.0000 deg.
 QCNR:  CnvC1=5.76D-12 CnvC2=5.76D-11
 LinEq1:  Iter=  0 NonCon=     1 RMS=3.53D-08 Max=8.34D-07 NDo=     1
 LinEq1:  Iter=  1 NonCon=     1 RMS=7.51D-09 Max=6.20D-08 NDo=     1
 LinEq1:  Iter=  2 NonCon=     1 RMS=1.87D-09 Max=1.57D-08 NDo=     1
 LinEq1:  Iter=  3 NonCon=     1 RMS=3.93D-10 Max=4.41D-09 NDo=     1
 LinEq1:  Iter=  4 NonCon=     1 RMS=5.25D-11 Max=4.65D-10 NDo=     1
 LinEq1:  Iter=  5 NonCon=     1 RMS=1.17D-11 Max=1.38D-10 NDo=     1
 LinEq1:  Iter=  6 NonCon=     0 RMS=2.01D-12 Max=1.89D-11 NDo=     1
 Linear equations converged to 5.761D-12 5.761D-11 after     6 iterations.
 Angle between quadratic step and gradient=  90.00 degrees.
     ILin= 1 X=0.000D+00 Y=-1.987908349949D-01 DE= 0.00D+00 F= -2.27D-12
     ILin= 2 X=1.000D+00 Y=-1.987908349973D-01 DE=-2.39D-12
 Iteration  10 EE=-0.198790834997283     Delta-E=       -0.000000000002 Grad=7.804D-10 Max rot=    0.0000 deg.
 Rotation gradient small -- convergence achieved.
 SCF Done:  E(RPM6) = -0.198790834997     a.u. after   10 cycles
            Convg  =    0.7804D-09                    43 Fock formations.
              S**2 =  0.0000                  -V/T =  0.9951
 Leave Link  508 at Tue Feb 23 12:28:07 2021, MaxMem=    33554432 cpu:         0.1
 (Enter /cm/shared/apps/Gaussian09/g09/l801.exe)
 Range of M.O.s used for correlation:     1    58
 NBasis=    58 NAE=    34 NBE=    34 NFC=     0 NFV=     0
 NROrb=     58 NOA=    34 NOB=    34 NVA=    24 NVB=    24
 Leave Link  801 at Tue Feb 23 12:28:07 2021, MaxMem=    33554432 cpu:         0.0
 (Enter /cm/shared/apps/Gaussian09/g09/l1101.exe)
 Using compressed storage, NAtomX=    22.
 Will process     23 centers per pass.
 Leave Link 1101 at Tue Feb 23 12:28:07 2021, MaxMem=    33554432 cpu:         0.0
 (Enter /cm/shared/apps/Gaussian09/g09/l1102.exe)
 Symmetrizing basis deriv contribution to polar:
 IMax=3 JMax=2 DiffMx= 0.00D+00
 Leave Link 1102 at Tue Feb 23 12:28:07 2021, MaxMem=    33554432 cpu:         0.0
 (Enter /cm/shared/apps/Gaussian09/g09/l1110.exe)
 Forming Gx(P) for the SCF density, NAtomX=    22.
 Integral derivatives from FoFJK, PRISM(SPDF).
 Do as many integral derivatives as possible in FoFJK.
 G2DrvN: MDV=      33495261.
 G2DrvN: will do    23 centers at a time, making    1 passes.
 Calling FoFCou, ICntrl=  3107 FMM=F I1Cent=   0 AccDes= 0.00D+00.
 FoFJK:  IHMeth=40 ICntrl=    3107 DoSepK=F KAlg= 0 I1Cent=   0 FoldK=F
 IRaf=         0 NMat=   1 IRICut=       1 DoRegI=T DoRafI=F ISym2E= 0.
 FoFCou: FMM=F IPFlag=           0 FMFlag=      100000 FMFlg1=           0
         NFxFlg=           0 DoJE=F BraDBF=F KetDBF=F FulRan=T
         wScrn=  0.000000 ICntrl=    3107 IOpCl=  0 I1Cent=           0 NGrid=           0
         NMat0=    1 NMatS0=      1 NMatT0=    0 NMatD0=    1 NMtDS0=    0 NMtDT0=    0
 Symmetry not used in FoFCou.
 End of G2Drv F.D. properties file   721 does not exist.
 End of G2Drv F.D. properties file   722 does not exist.
 End of G2Drv F.D. properties file   788 does not exist.
 Leave Link 1110 at Tue Feb 23 12:28:07 2021, MaxMem=    33554432 cpu:         0.0
 (Enter /cm/shared/apps/Gaussian09/g09/l1002.exe)
 Minotr:  Closed shell wavefunction.
          IDoAtm=1111111111111111111111
          Direct CPHF calculation.
          Differentiating once with respect to electric field.
                with respect to dipole field.
          Differentiating once with respect to nuclear coordinates.
          Electric field/nuclear overlap derivatives assumed to be zero.
          Requested convergence is 1.0D-08 RMS, and 1.0D-07 maximum.
          NewPWx=T KeepS1=F KeepF1=F KeepIn=T MapXYZ=F SortEE=F KeepMc=T.
          MDV=      33495259 using IRadAn=       2.
 Keep J ints in memory in canonical form, NReq=891094.
 FoFCou: FMM=F IPFlag=           0 FMFlag=           0 FMFlg1=           0
         NFxFlg=           0 DoJE=F BraDBF=F KetDBF=F FulRan=T
         wScrn=  0.000000 ICntrl=     600 IOpCl=  2 I1Cent=           0 NGrid=           0
         NMat0=    1 NMatS0=    130 NMatT0=    0 NMatD0=    1 NMtDS0=    0 NMtDT0=    0
 Symmetry not used in FoFCou.
          Solving linear equations separately, MaxMat=       0.
          There are    69 degrees of freedom in the 1st order CPHF.  IDoFFX=5 NUNeed=    69.
 LinEq1:  Iter=  0 NonCon=    69 RMS=2.31D-01 Max=3.64D+00 NDo=    69
 AX will form    69 AO Fock derivatives at one time.
 LinEq1:  Iter=  1 NonCon=    69 RMS=4.38D-02 Max=3.24D-01 NDo=    69
 LinEq1:  Iter=  2 NonCon=    69 RMS=1.09D-02 Max=1.17D-01 NDo=    69
 LinEq1:  Iter=  3 NonCon=    69 RMS=1.95D-03 Max=2.07D-02 NDo=    69
 LinEq1:  Iter=  4 NonCon=    69 RMS=3.53D-04 Max=3.76D-03 NDo=    69
 LinEq1:  Iter=  5 NonCon=    69 RMS=6.55D-05 Max=6.57D-04 NDo=    69
 LinEq1:  Iter=  6 NonCon=    69 RMS=1.21D-05 Max=1.20D-04 NDo=    69
 LinEq1:  Iter=  7 NonCon=    56 RMS=2.22D-06 Max=2.10D-05 NDo=    69
 LinEq1:  Iter=  8 NonCon=    29 RMS=3.46D-07 Max=3.16D-06 NDo=    69
 LinEq1:  Iter=  9 NonCon=     3 RMS=5.13D-08 Max=4.59D-07 NDo=    69
 LinEq1:  Iter= 10 NonCon=     0 RMS=6.24D-09 Max=4.25D-08 NDo=    69
 Linear equations converged to 1.000D-08 1.000D-07 after    10 iterations.
 FullF1:  Do perturbations    1 to     3.
 Isotropic polarizability for W=    0.000000       79.46 Bohr**3.
 End of Minotr F.D. properties file   721 does not exist.
 End of Minotr F.D. properties file   722 does not exist.
 End of Minotr F.D. properties file   788 does not exist.
 Leave Link 1002 at Tue Feb 23 12:28:07 2021, MaxMem=    33554432 cpu:         0.2
 (Enter /cm/shared/apps/Gaussian09/g09/l601.exe)
 Copying SCF densities to generalized density rwf, IOpCl= 0 IROHF=0.

 **********************************************************************

            Population analysis using the SCF density.

 **********************************************************************

 Alpha  occ. eigenvalues --   -1.35045  -1.24322  -1.17902  -1.17096  -1.07239
 Alpha  occ. eigenvalues --   -0.99950  -0.95793  -0.94035  -0.87910  -0.83105
 Alpha  occ. eigenvalues --   -0.77757  -0.70431  -0.69248  -0.67901  -0.67638
 Alpha  occ. eigenvalues --   -0.62613  -0.60950  -0.59191  -0.58510  -0.56089
 Alpha  occ. eigenvalues --   -0.55579  -0.54778  -0.52558  -0.51180  -0.50414
 Alpha  occ. eigenvalues --   -0.49263  -0.48946  -0.47819  -0.47116  -0.45466
 Alpha  occ. eigenvalues --   -0.42782  -0.35949  -0.35378  -0.34750
 Alpha virt. eigenvalues --   -0.07666  -0.02120   0.00894   0.01047   0.01886
 Alpha virt. eigenvalues --    0.03585   0.08190   0.09773   0.11246   0.11658
 Alpha virt. eigenvalues --    0.13425   0.14023   0.14987   0.15802   0.16342
 Alpha virt. eigenvalues --    0.17048   0.17190   0.19015   0.19772   0.20570
 Alpha virt. eigenvalues --    0.21213   0.21871   0.24804   0.28139
          Condensed to atoms (all electrons):
               1          2          3          4          5          6
     1  O    7.045491   0.000000   0.000000   0.000000   0.000000   0.000000
     2  O    0.000000   5.910300   0.000000   0.000000   0.000000   0.000000
     3  C    0.000000   0.000000   3.477892   0.000000   0.000000   0.000000
     4  O    0.000000   0.000000   0.000000   6.254218   0.000000   0.000000
     5  C    0.000000   0.000000   0.000000   0.000000   3.991176   0.000000
     6  C    0.000000   0.000000   0.000000   0.000000   0.000000   4.284175
     7  C    0.000000   0.000000   0.000000   0.000000   0.000000   0.000000
     8  C    0.000000   0.000000   0.000000   0.000000   0.000000   0.000000
     9  O    0.000000   0.000000   0.000000   0.000000   0.000000   0.000000
    10  C    0.000000   0.000000   0.000000   0.000000   0.000000   0.000000
    11  O    0.000000   0.000000   0.000000   0.000000   0.000000   0.000000
    12  C    0.000000   0.000000   0.000000   0.000000   0.000000   0.000000
    13  H    0.000000   0.000000   0.000000   0.000000   0.000000   0.000000
    14  H    0.000000   0.000000   0.000000   0.000000   0.000000   0.000000
    15  H    0.000000   0.000000   0.000000   0.000000   0.000000   0.000000
    16  H    0.000000   0.000000   0.000000   0.000000   0.000000   0.000000
    17  H    0.000000   0.000000   0.000000   0.000000   0.000000   0.000000
    18  H    0.000000   0.000000   0.000000   0.000000   0.000000   0.000000
    19  H    0.000000   0.000000   0.000000   0.000000   0.000000   0.000000
    20  H    0.000000   0.000000   0.000000   0.000000   0.000000   0.000000
    21  H    0.000000   0.000000   0.000000   0.000000   0.000000   0.000000
    22  H    0.000000   0.000000   0.000000   0.000000   0.000000   0.000000
               7          8          9         10         11         12
     1  O    0.000000   0.000000   0.000000   0.000000   0.000000   0.000000
     2  O    0.000000   0.000000   0.000000   0.000000   0.000000   0.000000
     3  C    0.000000   0.000000   0.000000   0.000000   0.000000   0.000000
     4  O    0.000000   0.000000   0.000000   0.000000   0.000000   0.000000
     5  C    0.000000   0.000000   0.000000   0.000000   0.000000   0.000000
     6  C    0.000000   0.000000   0.000000   0.000000   0.000000   0.000000
     7  C    4.460926   0.000000   0.000000   0.000000   0.000000   0.000000
     8  C    0.000000   3.571989   0.000000   0.000000   0.000000   0.000000
     9  O    0.000000   0.000000   6.482052   0.000000   0.000000   0.000000
    10  C    0.000000   0.000000   0.000000   3.520234   0.000000   0.000000
    11  O    0.000000   0.000000   0.000000   0.000000   6.447268   0.000000
    12  C    0.000000   0.000000   0.000000   0.000000   0.000000   4.668632
    13  H    0.000000   0.000000   0.000000   0.000000   0.000000   0.000000
    14  H    0.000000   0.000000   0.000000   0.000000   0.000000   0.000000
    15  H    0.000000   0.000000   0.000000   0.000000   0.000000   0.000000
    16  H    0.000000   0.000000   0.000000   0.000000   0.000000   0.000000
    17  H    0.000000   0.000000   0.000000   0.000000   0.000000   0.000000
    18  H    0.000000   0.000000   0.000000   0.000000   0.000000   0.000000
    19  H    0.000000   0.000000   0.000000   0.000000   0.000000   0.000000
    20  H    0.000000   0.000000   0.000000   0.000000   0.000000   0.000000
    21  H    0.000000   0.000000   0.000000   0.000000   0.000000   0.000000
    22  H    0.000000   0.000000   0.000000   0.000000   0.000000   0.000000
              13         14         15         16         17         18
     1  O    0.000000   0.000000   0.000000   0.000000   0.000000   0.000000
     2  O    0.000000   0.000000   0.000000   0.000000   0.000000   0.000000
     3  C    0.000000   0.000000   0.000000   0.000000   0.000000   0.000000
     4  O    0.000000   0.000000   0.000000   0.000000   0.000000   0.000000
     5  C    0.000000   0.000000   0.000000   0.000000   0.000000   0.000000
     6  C    0.000000   0.000000   0.000000   0.000000   0.000000   0.000000
     7  C    0.000000   0.000000   0.000000   0.000000   0.000000   0.000000
     8  C    0.000000   0.000000   0.000000   0.000000   0.000000   0.000000
     9  O    0.000000   0.000000   0.000000   0.000000   0.000000   0.000000
    10  C    0.000000   0.000000   0.000000   0.000000   0.000000   0.000000
    11  O    0.000000   0.000000   0.000000   0.000000   0.000000   0.000000
    12  C    0.000000   0.000000   0.000000   0.000000   0.000000   0.000000
    13  H    0.704140   0.000000   0.000000   0.000000   0.000000   0.000000
    14  H    0.000000   0.846882   0.000000   0.000000   0.000000   0.000000
    15  H    0.000000   0.000000   0.808911   0.000000   0.000000   0.000000
    16  H    0.000000   0.000000   0.000000   0.809615   0.000000   0.000000
    17  H    0.000000   0.000000   0.000000   0.000000   0.835371   0.000000
    18  H    0.000000   0.000000   0.000000   0.000000   0.000000   0.813277
    19  H    0.000000   0.000000   0.000000   0.000000   0.000000   0.000000
    20  H    0.000000   0.000000   0.000000   0.000000   0.000000   0.000000
    21  H    0.000000   0.000000   0.000000   0.000000   0.000000   0.000000
    22  H    0.000000   0.000000   0.000000   0.000000   0.000000   0.000000
              19         20         21         22
     1  O    0.000000   0.000000   0.000000   0.000000
     2  O    0.000000   0.000000   0.000000   0.000000
     3  C    0.000000   0.000000   0.000000   0.000000
     4  O    0.000000   0.000000   0.000000   0.000000
     5  C    0.000000   0.000000   0.000000   0.000000
     6  C    0.000000   0.000000   0.000000   0.000000
     7  C    0.000000   0.000000   0.000000   0.000000
     8  C    0.000000   0.000000   0.000000   0.000000
     9  O    0.000000   0.000000   0.000000   0.000000
    10  C    0.000000   0.000000   0.000000   0.000000
    11  O    0.000000   0.000000   0.000000   0.000000
    12  C    0.000000   0.000000   0.000000   0.000000
    13  H    0.000000   0.000000   0.000000   0.000000
    14  H    0.000000   0.000000   0.000000   0.000000
    15  H    0.000000   0.000000   0.000000   0.000000
    16  H    0.000000   0.000000   0.000000   0.000000
    17  H    0.000000   0.000000   0.000000   0.000000
    18  H    0.000000   0.000000   0.000000   0.000000
    19  H    0.731222   0.000000   0.000000   0.000000
    20  H    0.000000   0.803108   0.000000   0.000000
    21  H    0.000000   0.000000   0.731511   0.000000
    22  H    0.000000   0.000000   0.000000   0.801609
 Mulliken charges:
               1
     1  O   -1.045491
     2  O    0.089700
     3  C    0.522108
     4  O   -0.254218
     5  C    0.008824
     6  C   -0.284175
     7  C   -0.460926
     8  C    0.428011
     9  O   -0.482052
    10  C    0.479766
    11  O   -0.447268
    12  C   -0.668632
    13  H    0.295860
    14  H    0.153118
    15  H    0.191089
    16  H    0.190385
    17  H    0.164629
    18  H    0.186723
    19  H    0.268778
    20  H    0.196892
    21  H    0.268489
    22  H    0.198391
 Sum of Mulliken charges =   0.00000
 Mulliken charges with hydrogens summed into heavy atoms:
               1
     1  O   -0.749631
     2  O    0.089700
     3  C    0.522108
     4  O   -0.254218
     5  C    0.353031
     6  C    0.070839
     7  C   -0.005424
     8  C    0.428011
     9  O   -0.482052
    10  C    0.479766
    11  O   -0.447268
    12  C   -0.004860
 APT charges:
               1
     1  O   -1.403495
     2  O    0.491978
     3  C    0.440122
     4  O   -0.523816
     5  C    0.237529
     6  C   -0.376637
     7  C   -0.687747
     8  C    0.795060
     9  O   -0.702368
    10  C    1.033138
    11  O   -0.756347
    12  C   -1.067218
    13  H    0.365580
    14  H    0.148825
    15  H    0.139475
    16  H    0.203627
    17  H    0.182289
    18  H    0.205729
    19  H    0.336181
    20  H    0.241783
    21  H    0.450997
    22  H    0.245298
 Sum of APT charges =  -0.00002
 APT charges with hydrogens summed into heavy atoms:
               1
     1  O   -1.037915
     2  O    0.491978
     3  C    0.440122
     4  O   -0.523816
     5  C    0.525829
     6  C    0.009278
     7  C   -0.145837
     8  C    0.795060
     9  O   -0.702368
    10  C    1.033138
    11  O   -0.756347
    12  C   -0.129140
 Charge=              0.0000 electrons
 Dipole moment (field-independent basis, Debye):
    X=              6.1097    Y=             -1.5622    Z=             -1.3942  Tot=              6.4585
 N-N= 4.559441215562D+02 E-N=-8.247061779918D+02  KE=-4.028554417878D+01
  Exact polarizability:  73.926 -24.031  89.719   4.289   1.916  74.740
 Approx polarizability:  50.282 -18.014  76.309   5.960   1.171  57.758
 Leave Link  601 at Tue Feb 23 12:28:07 2021, MaxMem=    33554432 cpu:         0.0
 (Enter /cm/shared/apps/Gaussian09/g09/l701.exe)
 Compute integral second derivatives.
 ... and contract with generalized density number  0.
 Leave Link  701 at Tue Feb 23 12:28:07 2021, MaxMem=    33554432 cpu:         0.1
 (Enter /cm/shared/apps/Gaussian09/g09/l702.exe)
 L702 exits ... SP integral derivatives will be done elsewhere.
 Leave Link  702 at Tue Feb 23 12:28:07 2021, MaxMem=    33554432 cpu:         0.0
 (Enter /cm/shared/apps/Gaussian09/g09/l703.exe)
 Compute integral second derivatives, UseDBF=F ICtDFT=           0.
 Integral derivatives from FoFJK, PRISM(SPDF).
 Calling FoFJK, ICntrl=    100127 FMM=F ISym2X=0 I1Cent= 0 IOpClX= 0 NMat=1 NMatS=1 NMatT=0.
 FoFJK:  IHMeth=40 ICntrl=  100127 DoSepK=F KAlg= 0 I1Cent=   0 FoldK=F
 IRaf=         0 NMat=   1 IRICut=       1 DoRegI=T DoRafI=F ISym2E= 0.
 FoFCou: FMM=F IPFlag=           0 FMFlag=      100000 FMFlg1=         800
         NFxFlg=           0 DoJE=F BraDBF=F KetDBF=F FulRan=T
         wScrn=  0.000000 ICntrl=  100127 IOpCl=  0 I1Cent=           0 NGrid=           0
         NMat0=    1 NMatS0=      1 NMatT0=    0 NMatD0=    1 NMtDS0=    0 NMtDT0=    0
 Symmetry not used in FoFCou.
 Leave Link  703 at Tue Feb 23 12:28:07 2021, MaxMem=    33554432 cpu:         0.1
 (Enter /cm/shared/apps/Gaussian09/g09/l716.exe)
 Dipole        = 2.40372801D+00-6.14611571D-01-5.48503268D-01
 Polarizability= 7.39258337D+01-2.40311145D+01 8.97192862D+01
                 4.28926936D+00 1.91599986D+00 7.47403045D+01
 HyperPolar    = 5.43084994D+00-1.22640550D+02 2.27298058D+02
                -6.01805046D+02-4.74130232D+01 8.04392505D+01
                -2.05952427D+02 6.08071063D+01-8.53659254D+01
                -1.02301842D+02
 -------------------------------------------------------------------
 Center     Atomic                   Forces (Hartrees/Bohr)
 Number     Number              X              Y              Z
 -------------------------------------------------------------------
      1        8           0.000000024    0.000000160    0.000000095
      2        8          -0.000000515    0.000000379   -0.000000601
      3        6           0.000000092   -0.000000238    0.000000012
      4        8           0.000000339   -0.000000451    0.000000124
      5        6           0.000000232    0.000000070   -0.000000043
      6        6           0.000000022   -0.000000153    0.000000197
      7        6          -0.000000009    0.000000205    0.000000145
      8        6          -0.000000081    0.000000181    0.000000031
      9        8          -0.000000099   -0.000000802   -0.000000207
     10        6           0.000000045   -0.000000128   -0.000000151
     11        8          -0.000000350    0.000000241    0.000000565
     12        6          -0.000000050    0.000000128   -0.000000188
     13        1           0.000000013    0.000000066   -0.000000011
     14        1           0.000000214   -0.000000091    0.000000027
     15        1           0.000000064    0.000000235   -0.000000025
     16        1          -0.000000066   -0.000000235    0.000000013
     17        1           0.000000098   -0.000000001    0.000000229
     18        1          -0.000000047    0.000000124    0.000000203
     19        1           0.000000064    0.000000217   -0.000000136
     20        1          -0.000000117    0.000000160   -0.000000041
     21        1           0.000000181    0.000000070   -0.000000093
     22        1          -0.000000054   -0.000000138   -0.000000146
 -------------------------------------------------------------------
 Cartesian Forces:  Max     0.000000802 RMS     0.000000221
 Leave Link  716 at Tue Feb 23 12:28:07 2021, MaxMem=    33554432 cpu:         0.0
 (Enter /cm/shared/apps/Gaussian09/g09/l103.exe)

 GradGradGradGradGradGradGradGradGradGradGradGradGradGradGradGradGradGrad
 Berny optimization.
 Search for a saddle point.
 Step number   1 out of a maximum of  100
 All quantities printed in internal units (Hartrees-Bohrs-Radians)
 Swapping is turned off.
 Second derivative matrix not updated -- analytic derivatives used.
 ITU=  0
     Eigenvalues ---   -0.04812   0.00043   0.00062   0.00116   0.00163
     Eigenvalues ---    0.00207   0.00353   0.00578   0.00691   0.00735
     Eigenvalues ---    0.00979   0.01236   0.01595   0.01760   0.02486
     Eigenvalues ---    0.03093   0.03545   0.03888   0.04594   0.04630
     Eigenvalues ---    0.04704   0.05301   0.05361   0.05732   0.05766
     Eigenvalues ---    0.06332   0.06862   0.07313   0.07758   0.08941
     Eigenvalues ---    0.09652   0.10474   0.12053   0.13169   0.13464
     Eigenvalues ---    0.14944   0.16955   0.18972   0.22969   0.24594
     Eigenvalues ---    0.27488   0.30156   0.34803   0.39849   0.42755
     Eigenvalues ---    0.45670   0.48858   0.52686   0.53456   0.58229
     Eigenvalues ---    0.59160   0.62666   0.64247   0.68219   0.71346
     Eigenvalues ---    0.73451   0.81872   1.65063   1.69457   2.29603
 Eigenvectors required to have negative eigenvalues:
                          Y2        Z2        Z13       Y3        X2
   1                    0.55070   0.51529  -0.38729  -0.28870   0.23035
                          Z1        Z3        X1        Y4        Z5
   1                   -0.17546  -0.15078  -0.13224  -0.09942  -0.09853
 RFO step:  Lambda0=6.099322436D-13 Lambda= 0.00000000D+00.
 Linear search not attempted -- option 19 set.
 TrRot=  0.000001  0.000005  0.000002  0.000000  0.000001  0.000000
 Variable       Old X    -DE/DX   Delta X   Delta X   Delta X     New X
                                 (Linear)    (Quad)   (Total)
    X1        1.13492   0.00000   0.00000  -0.00001  -0.00001   1.13491
    Y1        2.44563   0.00000   0.00000   0.00002   0.00002   2.44565
    Z1       -2.31048   0.00000   0.00000   0.00001   0.00001  -2.31047
    X2        0.95782   0.00000   0.00000   0.00001   0.00001   0.95782
    Y2       -0.50041   0.00000   0.00000   0.00003   0.00003  -0.50038
    Z2       -4.44794   0.00000   0.00000   0.00000   0.00000  -4.44794
    X3        2.16265   0.00000   0.00000   0.00001   0.00001   2.16266
    Y3       -1.89462   0.00000   0.00000   0.00002   0.00003  -1.89459
    Z3       -3.31185   0.00000   0.00000  -0.00001  -0.00001  -3.31186
    X4        3.64363   0.00000   0.00000   0.00001   0.00000   3.64364
    Y4       -2.99549   0.00000   0.00000   0.00001   0.00001  -2.99548
    Z4       -1.78005   0.00000   0.00000  -0.00001  -0.00001  -1.78006
    X5        4.34430   0.00000   0.00000   0.00001   0.00001   4.34431
    Y5       -1.38012   0.00000   0.00000  -0.00001  -0.00001  -1.38013
    Z5        0.54830   0.00000   0.00000   0.00000   0.00000   0.54830
    X6        2.36343   0.00000   0.00000   0.00000   0.00000   2.36343
    Y6       -1.80521   0.00000   0.00000  -0.00002  -0.00001  -1.80522
    Z6        2.55698   0.00000   0.00000   0.00000   0.00000   2.55698
    X7        0.15992   0.00000   0.00000   0.00000   0.00000   0.15993
    Y7        0.04464   0.00000   0.00000  -0.00001   0.00000   0.04463
    Z7        2.35370   0.00000   0.00000   0.00000   0.00000   2.35370
    X8       -2.17931   0.00000   0.00000  -0.00001  -0.00001  -2.17931
    Y8       -1.09827   0.00000   0.00000   0.00000   0.00000  -1.09827
    Z8        1.23111   0.00000   0.00000   0.00001   0.00001   1.23112
    X9       -2.36426   0.00000   0.00000  -0.00002  -0.00003  -2.36428
    Y9       -3.25700   0.00000   0.00000  -0.00001   0.00000  -3.25700
    Z9        0.50196   0.00000   0.00000   0.00003   0.00003   0.50200
   X10       -4.37015   0.00000   0.00000   0.00000   0.00001  -4.37014
   Y10        0.82380   0.00000   0.00000   0.00001   0.00002   0.82382
   Z10        0.90659   0.00000   0.00000   0.00000   0.00000   0.90660
   X11       -5.77220   0.00000   0.00000   0.00003   0.00003  -5.77217
   Y11        1.28836   0.00000   0.00000   0.00006   0.00007   1.28842
   Z11        2.64051   0.00000   0.00000   0.00001   0.00001   2.64053
   X12       -4.38855   0.00000   0.00000  -0.00001  -0.00001  -4.38856
   Y12        1.97871   0.00000   0.00000  -0.00003  -0.00002   1.97868
   Z12       -1.64137   0.00000   0.00000  -0.00002  -0.00001  -1.64139
   X13        1.34081   0.00000   0.00000  -0.00001  -0.00001   1.34079
   Y13        3.92766   0.00000   0.00000   0.00003   0.00003   3.92769
   Z13       -3.18869   0.00000   0.00000   0.00002   0.00002  -3.18867
   X14        6.19692   0.00000   0.00000   0.00000   0.00000   6.19692
   Y14       -2.25493   0.00000   0.00000  -0.00003  -0.00003  -2.25495
   Z14        0.92912   0.00000   0.00000   0.00000   0.00000   0.92913
   X15        4.47968   0.00000   0.00000   0.00002   0.00002   4.47970
   Y15        0.61264   0.00000   0.00000  -0.00001   0.00000   0.61264
   Z15       -0.11283   0.00000   0.00000   0.00002   0.00002  -0.11281
   X16        1.63920   0.00000   0.00000  -0.00001  -0.00001   1.63919
   Y16       -3.79041   0.00000   0.00000  -0.00001  -0.00001  -3.79042
   Z16        2.45332   0.00000   0.00000  -0.00002  -0.00002   2.45330
   X17        3.26011   0.00000   0.00000  -0.00001  -0.00001   3.26010
   Y17       -1.65903   0.00000   0.00000  -0.00003  -0.00003  -1.65905
   Z17        4.45099   0.00000   0.00000   0.00000   0.00000   4.45099
   X18       -0.27993   0.00000   0.00000   0.00001   0.00002  -0.27992
   Y18        0.92235   0.00000   0.00000   0.00000   0.00001   0.92236
   Z18        4.20179   0.00000   0.00000   0.00000   0.00000   4.20179
   X19        0.69561   0.00000   0.00000   0.00000   0.00001   0.69562
   Y19        1.71878   0.00000   0.00000  -0.00001  -0.00001   1.71877
   Z19        1.07230   0.00000   0.00000  -0.00001  -0.00001   1.07230
   X20       -5.55889   0.00000   0.00000  -0.00003  -0.00003  -5.55892
   Y20        3.68572   0.00000   0.00000  -0.00005  -0.00004   3.68568
   Z20       -1.73247   0.00000   0.00000  -0.00005  -0.00004  -1.73251
   X21       -2.39523   0.00000   0.00000  -0.00001  -0.00001  -2.39524
   Y21        2.52241   0.00000   0.00000  -0.00001  -0.00001   2.52241
   Z21       -2.22858   0.00000   0.00000  -0.00002  -0.00002  -2.22860
   X22       -5.07050   0.00000   0.00000   0.00001   0.00001  -5.07048
   Y22        0.66479   0.00000   0.00000  -0.00006  -0.00005   0.66474
   Z22       -3.09241   0.00000   0.00000   0.00000   0.00000  -3.09241
         Item               Value     Threshold  Converged?
 Maximum Force            0.000001     0.000450     YES
 RMS     Force            0.000000     0.000300     YES
 Maximum Displacement     0.000066     0.001800     YES
 RMS     Displacement     0.000019     0.001200     YES
 Predicted change in Energy=-1.117783D-11
 Optimization completed.
    -- Stationary point found.
 Lowest energy point so far.  Saving SCF results.
 GradGradGradGradGradGradGradGradGradGradGradGradGradGradGradGradGradGrad

 Largest change from initial coordinates is atom    0       0.000 Angstoms.
 Leave Link  103 at Tue Feb 23 12:28:07 2021, MaxMem=    33554432 cpu:         0.0
 (Enter /cm/shared/apps/Gaussian09/g09/l202.exe)
                          Input orientation:                          
 ---------------------------------------------------------------------
 Center     Atomic      Atomic             Coordinates (Angstroms)
 Number     Number       Type             X           Y           Z
 ---------------------------------------------------------------------
      1          8           0        0.600574    1.294172   -1.222654
      2          8           0        0.506856   -0.264806   -2.353749
      3          6           0        1.144427   -1.002589   -1.752555
      4          8           0        1.928128   -1.585147   -0.941962
      5          6           0        2.298906   -0.730330    0.290146
      6          6           0        1.250674   -0.955276    1.353096
      7          6           0        0.084628    0.023621    1.245523
      8          6           0       -1.153239   -0.581180    0.651474
      9          8           0       -1.251111   -1.723529    0.265628
     10          6           0       -2.312585    0.435938    0.479748
     11          8           0       -3.054516    0.681769    1.397300
     12          6           0       -2.322320    1.047087   -0.868578
     13          1           0        0.709525    2.078428   -1.687383
     14          1           0        3.279269   -1.193256    0.491672
     15          1           0        2.370545    0.324197   -0.059709
     16          1           0        0.867426   -2.005799    1.298242
     17          1           0        1.725176   -0.877919    2.355364
     18          1           0       -0.148134    0.488086    2.223492
     19          1           0        0.368101    0.909539    0.567439
     20          1           0       -2.941638    1.950396   -0.916784
     21          1           0       -1.267502    1.334803   -1.179314
     22          1           0       -2.683191    0.351794   -1.636435
 ---------------------------------------------------------------------
                    Distance matrix (angstroms):
                    1          2          3          4          5
     1  O    0.000000
     2  O    1.928360   0.000000
     3  C    2.419025   1.145537   0.000000
     4  O    3.183028   2.399262   1.269103   0.000000
     5  C    3.044914   3.227745   2.362113   1.544760   0.000000
     6  C    3.480968   3.843269   3.107828   2.474464   1.509719
     7  C    2.823544   3.635413   3.341369   3.282029   2.526699
     8  C    3.178862   3.447808   3.352046   3.611345   3.474206
     9  O    3.840604   3.475551   3.214252   3.403671   3.686416
    10  C    3.481556   4.058201   4.359297   4.908124   4.760459
    11  O    4.538599   5.258303   5.512692   5.952965   5.646144
    12  C    2.954612   3.454133   4.123217   5.000035   5.085035
    13  H    0.918095   2.444557   3.112242   3.932229   3.784953
    14  H    4.037526   4.079793   3.103298   2.008599   1.102735
    15  H    2.329397   3.013782   2.475774   2.149349   1.113354
    16  H    4.161242   4.061786   3.223433   2.514070   2.166152
    17  H    4.334158   4.902648   4.150640   3.378420   2.148504
    18  H    3.617494   4.684762   4.438668   4.316163   3.348189
    19  H    1.845649   3.151457   3.105043   3.306877   2.548346
    20  H    3.615446   4.343282   5.110241   6.017916   6.008849
    21  H    1.869020   2.662028   3.407258   4.335262   4.375312
    22  H    3.441279   3.327332   4.061834   5.049583   5.450137
                    6          7          8          9         10
     6  C    0.000000
     7  C    1.526261   0.000000
     8  C    2.531999   1.500331   0.000000
     9  O    2.834030   2.407680   1.209718   0.000000
    10  C    3.923649   2.550107   1.551805   2.415754   0.000000
    11  O    4.606141   3.210985   2.401281   3.212228   1.205320
    12  C    4.659568   3.363079   2.515663   3.179657   1.480399
    13  H    4.329054   3.635197   4.001706   4.702469   4.065387
    14  H    2.216728   3.500686   4.477421   4.566905   5.824366
    15  H    2.210697   2.649413   3.707093   4.173178   4.715422
    16  H    1.119592   2.175798   2.555570   2.373640   4.092002
    17  H    1.111610   2.176217   3.358060   3.733676   4.641946
    18  H    2.190331   1.107398   2.150537   3.152940   2.779966
    19  H    2.207652   1.151089   2.131615   3.105798   2.723612
    20  H    5.583079   4.188833   3.473712   4.213514   2.153972
    21  H    4.242496   3.070389   2.652514   3.382532   2.156999
    22  H    5.110873   4.009265   2.906152   3.158427   2.150038
                   11         12         13         14         15
    11  O    0.000000
    12  C    2.409101   0.000000
    13  H    5.062995   3.305478   0.000000
    14  H    6.667286   6.184433   4.696357   0.000000
    15  H    5.628678   4.816619   2.913011   1.852691   0.000000
    16  H    4.755467   4.918302   5.061600   2.669788   3.087439
    17  H    5.118200   5.521021   5.110316   2.447037   2.773835
    18  H    3.027733   3.821055   4.308097   4.192040   3.403470
    19  H    3.529144   3.052774   2.562633   3.591989   2.178468
    20  H    2.641428   1.096288   3.733792   7.110975   5.621244
    21  H    3.202938   1.136653   2.172497   5.464101   3.938302
    22  H    3.074137   1.096935   3.807148   6.516666   5.294060
                   16         17         18         19         20
    16  H    0.000000
    17  H    1.767868   0.000000
    18  H    2.847264   2.322208   0.000000
    19  H    3.046735   2.869379   1.785114   0.000000
    20  H    5.921722   6.362819   4.450095   3.773681   0.000000
    21  H    4.675021   5.132856   3.680897   2.430472   1.802944
    22  H    5.174694   6.072920   4.619971   3.805066   1.772068
                   21         22
    21  H    0.000000
    22  H    1.783099   0.000000
 Symmetry turned off by external request.
 Stoichiometry    C7H10O5
 Framework group  C1[X(C7H10O5)]
 Deg. of freedom    60
 Full point group                 C1      NOp   1
 Rotational constants (GHZ):      1.3834984      0.7071739      0.5885985
 Leave Link  202 at Tue Feb 23 12:28:07 2021, MaxMem=    33554432 cpu:         0.0
 (Enter /cm/shared/apps/Gaussian09/g09/l716.exe)
 Dipole        = 2.40372801D+00-6.14611571D-01-5.48503268D-01
 Polarizability= 7.39258337D+01-2.40311145D+01 8.97192862D+01
                 4.28926936D+00 1.91599986D+00 7.47403045D+01
 HyperPolar    = 5.43084994D+00-1.22640550D+02 2.27298058D+02
                -6.01805046D+02-4.74130232D+01 8.04392505D+01
                -2.05952427D+02 6.08071063D+01-8.53659254D+01
                -1.02301842D+02
 Full mass-weighted force constant matrix:
 Low frequencies --- -374.5816   -0.7724   -0.6077   -0.2576    0.0542    0.1808
 Low frequencies ---    0.3870   44.3144   55.0188
 ******    1 imaginary frequencies (negative Signs) ****** 
 Diagonal vibrational polarizability:
      221.5830973     146.6595464      77.1906008
 Harmonic frequencies (cm**-1), IR intensities (KM/Mole), Raman scattering
 activities (A**4/AMU), depolarization ratios for plane and unpolarized
 incident light, reduced masses (AMU), force constants (mDyne/A),
 and normal coordinates:
                      1                      2                      3
                      A                      A                      A
 Frequencies --   -374.5816                44.3144                55.0188
 Red. masses --      4.4999                 5.6209                 6.1745
 Frc consts  --      0.3720                 0.0065                 0.0110
 IR Inten    --    280.0409                 2.9238                 6.2758
  Atom  AN      X      Y      Z        X      Y      Z        X      Y      Z
     1   8    -0.07  -0.04  -0.18     0.05   0.08   0.09    -0.20  -0.04  -0.04
     2   8     0.10   0.27   0.27    -0.01   0.16  -0.01     0.17  -0.05  -0.08
     3   6     0.02  -0.18  -0.10    -0.03   0.11  -0.05     0.22   0.05  -0.02
     4   8     0.02  -0.04   0.02    -0.06   0.05  -0.08     0.22   0.06  -0.01
     5   6    -0.02  -0.03  -0.05    -0.02  -0.01  -0.04     0.06  -0.05   0.11
     6   6     0.00  -0.01  -0.01     0.01  -0.07  -0.03    -0.08  -0.11  -0.05
     7   6     0.00   0.00   0.04     0.00  -0.07   0.04    -0.02  -0.05  -0.09
     8   6     0.00   0.00  -0.01    -0.03  -0.07   0.10    -0.07   0.00  -0.02
     9   8    -0.01   0.00   0.01    -0.09  -0.12   0.26    -0.13   0.01  -0.04
    10   6     0.00   0.00   0.00     0.04  -0.02  -0.06    -0.04   0.05   0.06
    11   8     0.00   0.00   0.00     0.08   0.20  -0.09     0.13   0.19   0.16
    12   6    -0.03   0.00   0.00     0.06  -0.26  -0.17    -0.20  -0.06   0.01
    13   1    -0.07  -0.29  -0.74     0.02   0.12   0.16    -0.23   0.00   0.03
    14   1    -0.01   0.01   0.01    -0.01  -0.02  -0.09     0.02  -0.10   0.20
    15   1     0.01  -0.04  -0.04    -0.03   0.01   0.01     0.15  -0.03   0.21
    16   1     0.00   0.00  -0.01     0.01  -0.07  -0.06    -0.12  -0.09  -0.20
    17   1     0.03  -0.01  -0.02     0.03  -0.11  -0.04    -0.21  -0.24   0.02
    18   1    -0.05  -0.15   0.11     0.04  -0.09   0.06     0.03   0.05  -0.12
    19   1     0.00   0.05   0.24    -0.03  -0.05   0.06     0.00  -0.10  -0.16
    20   1    -0.07  -0.02   0.01    -0.05  -0.35  -0.37    -0.23  -0.08   0.00
    21   1    -0.08   0.03  -0.03     0.05  -0.16  -0.11    -0.24  -0.06  -0.10
    22   1    -0.04  -0.02   0.01     0.23  -0.44  -0.08    -0.25  -0.14   0.11
                      4                      5                      6
                      A                      A                      A
 Frequencies --     69.0928                93.1007               115.9205
 Red. masses --      7.4672                 2.8576                 7.0715
 Frc consts  --      0.0210                 0.0146                 0.0560
 IR Inten    --      2.4342                 5.8505                 5.7968
  Atom  AN      X      Y      Z        X      Y      Z        X      Y      Z
     1   8     0.15  -0.02  -0.13     0.04  -0.12   0.05     0.10  -0.09   0.05
     2   8     0.18   0.00  -0.15    -0.04  -0.07   0.01     0.31   0.11  -0.26
     3   6     0.14   0.00  -0.11     0.02  -0.08  -0.05     0.05  -0.02  -0.14
     4   8     0.08   0.01  -0.05     0.09   0.06  -0.02    -0.26  -0.12   0.07
     5   6     0.00   0.05  -0.04    -0.07   0.21  -0.07    -0.14   0.04  -0.06
     6   6    -0.04   0.01  -0.09     0.00  -0.02  -0.04     0.00   0.11   0.09
     7   6    -0.03   0.02  -0.07    -0.07  -0.08   0.14    -0.05   0.06   0.11
     8   6    -0.11  -0.02   0.13    -0.04  -0.03   0.01     0.02   0.02   0.02
     9   8    -0.19  -0.08   0.32    -0.04   0.00  -0.06     0.09   0.05  -0.08
    10   6    -0.08  -0.01   0.08     0.01   0.03   0.00    -0.03  -0.03   0.07
    11   8    -0.23  -0.13  -0.01     0.03   0.08   0.01     0.04   0.01   0.11
    12   6     0.11   0.16   0.15     0.05   0.02   0.00    -0.14  -0.12   0.02
    13   1     0.10   0.00  -0.12     0.06  -0.15  -0.02     0.08  -0.01   0.19
    14   1     0.01   0.11   0.00     0.05   0.49  -0.08    -0.09   0.13  -0.12
    15   1    -0.05   0.05  -0.06    -0.38   0.23  -0.12    -0.27   0.02  -0.18
    16   1    -0.04   0.01  -0.16     0.07  -0.04  -0.18     0.03   0.09   0.23
    17   1    -0.07  -0.06  -0.07     0.03  -0.14  -0.05     0.11   0.24   0.02
    18   1     0.09   0.13  -0.10    -0.11  -0.30   0.24    -0.10   0.00   0.12
    19   1    -0.07  -0.05  -0.19    -0.10   0.04   0.32    -0.06   0.08   0.13
    20   1     0.27   0.27   0.23     0.09   0.05  -0.01    -0.15  -0.13   0.01
    21   1     0.16   0.02   0.19     0.07  -0.03   0.02    -0.18  -0.15  -0.08
    22   1     0.00   0.32   0.06     0.03   0.04   0.00    -0.22  -0.18   0.11
                      7                      8                      9
                      A                      A                      A
 Frequencies --    138.8183               157.4510               197.5336
 Red. masses --      5.2794                 6.4413                 3.1118
 Frc consts  --      0.0599                 0.0941                 0.0715
 IR Inten    --     49.3725                12.3747                30.8877
  Atom  AN      X      Y      Z        X      Y      Z        X      Y      Z
     1   8     0.32  -0.05   0.17    -0.18  -0.12   0.17    -0.14  -0.08   0.17
     2   8    -0.05   0.02   0.17     0.03  -0.01  -0.02     0.04   0.03   0.03
     3   6     0.00  -0.07   0.02     0.06  -0.03  -0.09     0.02  -0.03  -0.02
     4   8     0.10  -0.04  -0.06     0.08  -0.05  -0.12    -0.01  -0.04   0.00
     5   6     0.05   0.02  -0.07     0.03  -0.11  -0.06     0.01   0.02  -0.04
     6   6     0.00   0.07  -0.11     0.02  -0.10  -0.06     0.04   0.08   0.00
     7   6     0.01   0.07  -0.16     0.13   0.08   0.16    -0.01   0.00  -0.05
     8   6    -0.03   0.05  -0.03     0.08   0.22   0.12     0.02  -0.03  -0.07
     9   8    -0.06   0.04  -0.03     0.11   0.22   0.07    -0.03  -0.09   0.11
    10   6    -0.08  -0.01   0.03    -0.03   0.07   0.00     0.05   0.01  -0.11
    11   8    -0.05   0.00   0.05    -0.23  -0.06  -0.13     0.10  -0.03  -0.06
    12   6    -0.23  -0.08  -0.03    -0.04  -0.04  -0.05    -0.05   0.15  -0.05
    13   1     0.10   0.01   0.21    -0.08  -0.10   0.23    -0.12  -0.02   0.26
    14   1     0.04   0.03  -0.01     0.01  -0.14  -0.05     0.02   0.03  -0.05
    15   1     0.05   0.00  -0.13     0.06  -0.10  -0.02     0.00   0.00  -0.09
    16   1     0.00   0.07  -0.08    -0.13  -0.04  -0.22     0.09   0.06   0.12
    17   1    -0.03   0.10  -0.09     0.06  -0.34  -0.07     0.07   0.21  -0.02
    18   1     0.08   0.21  -0.21     0.22  -0.05   0.23    -0.07  -0.01  -0.05
    19   1     0.00   0.01  -0.29     0.17   0.12   0.24    -0.03   0.04  -0.03
    20   1    -0.24  -0.09   0.01    -0.12  -0.11  -0.17     0.23   0.36   0.22
    21   1    -0.32  -0.12  -0.17    -0.04   0.01  -0.04    -0.03  -0.13  -0.23
    22   1    -0.39  -0.14   0.09     0.06  -0.16   0.01    -0.48   0.36  -0.04
                     10                     11                     12
                      A                      A                      A
 Frequencies --    220.5502               250.5872               282.3568
 Red. masses --      1.3600                 2.8863                 5.2472
 Frc consts  --      0.0390                 0.1068                 0.2465
 IR Inten    --     35.5468                22.7487                 9.0712
  Atom  AN      X      Y      Z        X      Y      Z        X      Y      Z
     1   8     0.05   0.01  -0.07     0.09  -0.03  -0.05     0.00  -0.05   0.05
     2   8    -0.03   0.00  -0.02    -0.03  -0.01  -0.04    -0.03   0.02   0.03
     3   6    -0.02   0.03   0.01    -0.02   0.02  -0.01     0.02  -0.04  -0.08
     4   8     0.00   0.05   0.00    -0.01   0.06   0.00     0.08   0.01  -0.11
     5   6    -0.01  -0.02   0.04    -0.05   0.00   0.06    -0.15  -0.07   0.03
     6   6    -0.02  -0.06   0.02    -0.06  -0.08   0.02    -0.25   0.05  -0.05
     7   6     0.01  -0.01   0.05     0.01   0.01   0.07    -0.13   0.18  -0.05
     8   6     0.02   0.02   0.02     0.05   0.05  -0.05    -0.04  -0.04   0.00
     9   8     0.04   0.02   0.01     0.04  -0.01   0.13     0.31  -0.09   0.05
    10   6     0.01   0.00   0.00     0.04   0.01  -0.10    -0.05  -0.07   0.01
    11   8    -0.01   0.00  -0.01     0.11  -0.10   0.00     0.05   0.08   0.05
    12   6    -0.03  -0.04  -0.02    -0.18   0.11  -0.05     0.11   0.00   0.05
    13   1    -0.09   0.03  -0.08     0.22  -0.08  -0.10     0.08  -0.07   0.02
    14   1    -0.02  -0.04   0.02    -0.04   0.01   0.04    -0.22  -0.16   0.17
    15   1     0.01   0.00   0.08    -0.08   0.02   0.11    -0.02  -0.07   0.05
    16   1    -0.05  -0.04  -0.05    -0.13  -0.06  -0.12    -0.38   0.09  -0.11
    17   1    -0.03  -0.14   0.03    -0.09  -0.25   0.04    -0.30  -0.07  -0.02
    18   1     0.02  -0.04   0.07    -0.04  -0.09   0.10    -0.11   0.27  -0.10
    19   1     0.03   0.00   0.08     0.08   0.05   0.17    -0.12   0.12  -0.13
    20   1     0.37   0.25   0.12    -0.52  -0.12   0.02     0.21   0.07   0.05
    21   1     0.00  -0.47  -0.29    -0.28   0.46   0.00     0.17  -0.06   0.16
    22   1    -0.60   0.11   0.11     0.09   0.04  -0.12     0.14   0.10  -0.05
                     13                     14                     15
                      A                      A                      A
 Frequencies --    301.1629               351.9160               364.0611
 Red. masses --      2.8660                 4.0852                 5.6289
 Frc consts  --      0.1532                 0.2981                 0.4396
 IR Inten    --     29.9385                75.7065                15.3835
  Atom  AN      X      Y      Z        X      Y      Z        X      Y      Z
     1   8    -0.05   0.18   0.01     0.03   0.25  -0.03     0.01  -0.14  -0.02
     2   8     0.07  -0.04   0.04     0.01  -0.09   0.01     0.01   0.05  -0.02
     3   6     0.00  -0.05   0.09     0.07  -0.01   0.01    -0.06   0.03   0.04
     4   8    -0.06  -0.13   0.09     0.11  -0.14  -0.10    -0.10   0.07   0.11
     5   6    -0.03   0.11  -0.05    -0.02  -0.09  -0.07     0.13   0.06   0.02
     6   6    -0.05  -0.10  -0.14     0.06   0.04   0.05     0.10  -0.09  -0.04
     7   6     0.04   0.01  -0.06    -0.07  -0.07   0.14     0.06  -0.11  -0.07
     8   6     0.02   0.03  -0.01    -0.04  -0.05   0.03    -0.02  -0.11   0.04
     9   8     0.06   0.01   0.03     0.09  -0.05   0.02     0.22  -0.11  -0.01
    10   6     0.01   0.00  -0.01    -0.06  -0.02  -0.02    -0.06  -0.06   0.03
    11   8     0.02  -0.02   0.01    -0.05   0.10  -0.04    -0.16   0.25  -0.13
    12   6     0.00  -0.01  -0.01    -0.14   0.07   0.01    -0.12   0.11   0.09
    13   1    -0.11   0.20   0.06    -0.10   0.24  -0.03    -0.07  -0.11   0.01
    14   1     0.08   0.37  -0.05     0.00  -0.04  -0.03     0.13   0.03  -0.07
    15   1    -0.30   0.11  -0.15    -0.06  -0.10  -0.14     0.13   0.06   0.07
    16   1    -0.13  -0.07  -0.47     0.13   0.01   0.33     0.15  -0.10  -0.23
    17   1    -0.17  -0.46  -0.07     0.23   0.32  -0.04    -0.01  -0.20   0.01
    18   1     0.13   0.06  -0.07    -0.14  -0.28   0.23     0.18   0.02  -0.12
    19   1     0.04   0.00  -0.10    -0.11   0.03   0.27     0.03  -0.19  -0.20
    20   1     0.04   0.02   0.00    -0.20   0.04   0.14    -0.28   0.03   0.30
    21   1     0.01  -0.04  -0.03    -0.15   0.16   0.03    -0.20   0.28   0.11
    22   1    -0.05   0.01   0.00    -0.13   0.14  -0.05    -0.07   0.20  -0.02
                     16                     17                     18
                      A                      A                      A
 Frequencies --    394.0859               427.6366               502.6471
 Red. masses --      1.1106                 2.0217                 9.1645
 Frc consts  --      0.1016                 0.2178                 1.3642
 IR Inten    --    127.5565                14.7294                36.2819
  Atom  AN      X      Y      Z        X      Y      Z        X      Y      Z
     1   8    -0.04   0.02   0.00     0.03  -0.03   0.00     0.00   0.01   0.02
     2   8     0.01   0.00  -0.01     0.01  -0.01  -0.02    -0.27  -0.08   0.13
     3   6    -0.03   0.00   0.03     0.00   0.04   0.05     0.57   0.25  -0.34
     4   8     0.01   0.00   0.00    -0.05  -0.02   0.05    -0.21  -0.12   0.12
     5   6     0.03   0.00  -0.01     0.15  -0.02  -0.02     0.02   0.03   0.03
     6   6     0.01   0.01  -0.03     0.00   0.09  -0.15     0.01   0.01   0.01
     7   6    -0.01   0.00   0.00    -0.07   0.04   0.07     0.02   0.01  -0.02
     8   6    -0.01   0.00   0.00    -0.04   0.01  -0.03     0.02  -0.01  -0.02
     9   8     0.00   0.00   0.00     0.00  -0.01   0.01    -0.01  -0.01  -0.01
    10   6    -0.02   0.00   0.00    -0.05  -0.01  -0.02     0.02  -0.01   0.02
    11   8    -0.01   0.01   0.01     0.02  -0.01   0.04    -0.02   0.02  -0.02
    12   6    -0.01  -0.02   0.00     0.01   0.00  -0.02     0.00  -0.01   0.02
    13   1     0.97  -0.13  -0.02    -0.27   0.00  -0.03     0.37  -0.24  -0.31
    14   1     0.02  -0.04   0.00     0.02  -0.28   0.07     0.02   0.05   0.01
    15   1     0.07  -0.01  -0.01     0.45  -0.06  -0.03    -0.02   0.01   0.00
    16   1     0.01   0.01  -0.05    -0.04   0.10  -0.33    -0.02   0.01  -0.08
    17   1     0.00   0.00  -0.02    -0.07  -0.09  -0.11    -0.04  -0.07   0.03
    18   1    -0.02  -0.06   0.03    -0.17  -0.34   0.24     0.00   0.03  -0.03
    19   1    -0.02   0.03   0.05    -0.14   0.21   0.34     0.01   0.02  -0.01
    20   1     0.07   0.04   0.01     0.05   0.01  -0.06     0.01   0.00   0.05
    21   1     0.01  -0.06  -0.04     0.06  -0.04   0.07    -0.01  -0.01  -0.01
    22   1    -0.09   0.01   0.01     0.07   0.01  -0.06    -0.05  -0.01   0.04
                     19                     20                     21
                      A                      A                      A
 Frequencies --    544.2677               588.9364               594.3687
 Red. masses --      3.5464                 4.9807                 3.3007
 Frc consts  --      0.6190                 1.0178                 0.6870
 IR Inten    --     24.7649                24.9192                 6.3516
  Atom  AN      X      Y      Z        X      Y      Z        X      Y      Z
     1   8    -0.01   0.03   0.00    -0.01  -0.18  -0.15     0.00   0.05   0.03
     2   8     0.01  -0.01  -0.01    -0.01   0.08   0.07     0.00  -0.01  -0.01
     3   6    -0.02  -0.04  -0.01     0.06   0.30   0.23    -0.01  -0.11  -0.11
     4   8     0.01  -0.01  -0.01     0.05  -0.11   0.00    -0.03   0.03  -0.01
     5   6     0.00   0.00   0.01    -0.07  -0.07  -0.16     0.07   0.04   0.05
     6   6    -0.08   0.10  -0.06    -0.01  -0.01  -0.05     0.06  -0.01   0.04
     7   6    -0.02   0.11   0.11    -0.04  -0.01   0.06     0.02  -0.01   0.07
     8   6     0.06  -0.11   0.18    -0.08  -0.02   0.18    -0.08   0.01   0.19
     9   8    -0.11  -0.01  -0.09     0.02   0.05  -0.03    -0.02   0.08  -0.04
    10   6     0.24  -0.08   0.04    -0.03  -0.02  -0.07    -0.18  -0.16  -0.14
    11   8     0.03   0.01  -0.16     0.07  -0.04   0.02     0.10  -0.01   0.05
    12   6    -0.02  -0.01   0.08     0.00   0.04  -0.06    -0.02   0.02  -0.08
    13   1     0.07   0.04   0.04     0.12   0.13   0.40    -0.01  -0.01  -0.08
    14   1    -0.09  -0.17   0.10     0.05   0.27   0.00     0.03  -0.10  -0.05
    15   1     0.20  -0.03  -0.03    -0.23  -0.04  -0.18     0.13   0.02   0.05
    16   1    -0.18   0.12  -0.27     0.00  -0.01   0.10     0.05  -0.01  -0.10
    17   1    -0.11  -0.19  -0.02     0.14   0.13  -0.13     0.02  -0.14   0.06
    18   1     0.10   0.29   0.04     0.21   0.25  -0.02     0.28   0.35  -0.07
    19   1    -0.17   0.04  -0.11    -0.13  -0.18  -0.25    -0.04  -0.20  -0.26
    20   1    -0.24  -0.12   0.39     0.00   0.04  -0.03     0.13   0.13   0.07
    21   1    -0.20   0.20  -0.16     0.01   0.04  -0.02     0.11   0.00   0.23
    22   1    -0.17   0.01   0.14     0.05   0.09  -0.14     0.12   0.35  -0.41
                     22                     23                     24
                      A                      A                      A
 Frequencies --    617.9466               686.3484               726.0416
 Red. masses --      3.3199                 1.3617                 3.8338
 Frc consts  --      0.7469                 0.3779                 1.1907
 IR Inten    --     14.7095               108.6997                20.3313
  Atom  AN      X      Y      Z        X      Y      Z        X      Y      Z
     1   8     0.00   0.02   0.00    -0.01  -0.02  -0.09     0.00   0.04   0.02
     2   8    -0.01   0.00   0.01    -0.02   0.02   0.04     0.02  -0.06   0.02
     3   6     0.01  -0.08  -0.08     0.01  -0.07  -0.07     0.05  -0.07  -0.04
     4   8    -0.03   0.02   0.01     0.00   0.00   0.01     0.01   0.20   0.22
     5   6     0.06   0.03   0.02     0.01   0.02   0.02    -0.13  -0.10  -0.22
     6   6     0.00   0.02  -0.02     0.01   0.01   0.02    -0.07  -0.08  -0.14
     7   6    -0.10  -0.11   0.02     0.01   0.01   0.02     0.00  -0.04  -0.04
     8   6    -0.14  -0.06   0.13     0.02   0.01  -0.05     0.00   0.04   0.04
     9   8     0.11  -0.03  -0.01    -0.01   0.00   0.01     0.02   0.05   0.01
    10   6     0.08   0.27   0.02    -0.02  -0.02   0.00     0.02  -0.04   0.00
    11   8    -0.01  -0.09   0.04    -0.01   0.01   0.00     0.02   0.00  -0.02
    12   6     0.00   0.08  -0.10     0.00   0.00   0.02     0.01  -0.02   0.01
    13   1     0.02   0.10   0.13     0.11   0.51   0.81     0.02   0.13   0.16
    14   1    -0.02  -0.14   0.02     0.00  -0.03   0.02    -0.18  -0.24  -0.05
    15   1     0.20   0.00   0.02     0.04   0.00   0.01     0.22   0.01   0.18
    16   1     0.11  -0.02  -0.05    -0.01   0.02  -0.07     0.05  -0.10   0.37
    17   1    -0.03   0.06  -0.01    -0.02  -0.09   0.04     0.26   0.45  -0.30
    18   1     0.11   0.16  -0.07    -0.07  -0.07   0.04     0.11  -0.14   0.04
    19   1    -0.20  -0.25  -0.28     0.04   0.00   0.03     0.01   0.01   0.03
    20   1    -0.08  -0.01  -0.42     0.00  -0.01   0.01    -0.01  -0.02   0.12
    21   1    -0.07   0.00  -0.35     0.01  -0.01   0.01    -0.01   0.03   0.01
    22   1    -0.06  -0.31   0.24     0.04   0.01  -0.02    -0.01   0.05  -0.03
                     25                     26                     27
                      A                      A                      A
 Frequencies --    821.5195               891.9949               931.8455
 Red. masses --      3.2729                 1.9703                 2.2345
 Frc consts  --      1.3014                 0.9236                 1.1432
 IR Inten    --     56.8057                66.5018               121.9265
  Atom  AN      X      Y      Z        X      Y      Z        X      Y      Z
     1   8     0.00   0.01   0.02     0.00   0.00   0.00     0.00  -0.01  -0.01
     2   8     0.01  -0.02   0.00     0.01  -0.01   0.01     0.01   0.00   0.01
     3   6     0.01   0.00   0.01     0.01   0.02   0.03     0.00   0.02   0.03
     4   8     0.03   0.06   0.07     0.01  -0.02  -0.01    -0.01  -0.05  -0.05
     5   6    -0.08  -0.08  -0.14    -0.06   0.08  -0.08    -0.12   0.15   0.08
     6   6     0.07   0.04   0.07     0.00   0.03   0.04    -0.05  -0.01  -0.07
     7   6     0.11   0.14   0.10    -0.06  -0.13   0.11     0.13  -0.02  -0.04
     8   6     0.09  -0.13  -0.03     0.03   0.08  -0.14     0.11  -0.06   0.07
     9   8    -0.05  -0.15  -0.06     0.00   0.03   0.04    -0.01  -0.03  -0.02
[...]
 0.01994700,0.00140094,-0.00081544,0.00047178,-0.00353457,-0.10477574,0
 .06769678,-0.00059142,0.01725862,0.00790075,-0.02636398,0.40650309,0.0
 1001003,-0.00188301,0.00386411,0.00044890,0.00189145,0.00202065,-0.002
 34839,0.00166351,-0.00371042,0.00190834,-0.00017408,0.00364022,-0.0001
 1799,-0.00121305,-0.00234523,-0.00058938,-0.00018903,0.00031777,-0.002
 62796,0.00090194,0.00090692,-0.00410192,0.01146896,-0.01093525,-0.0031
 7173,0.00547296,0.00210273,-0.00858575,0.06187096,-0.19425084,0.027008
 38,0.01216120,-0.06454016,0.00239654,-0.02700107,0.46440762,-0.0069407
 4,-0.02046383,0.01102221,-0.00065766,-0.00215467,0.00117184,0.00107044
 ,0.00183457,-0.00036289,-0.00037218,-0.00067581,-0.00070068,-0.0001909
 6,0.00031132,0.00030811,-0.00019540,-0.00020641,-0.00010844,-0.0004913
 2,-0.00035148,0.00047728,0.00069067,-0.00014828,0.00009996,-0.00027995
 ,0.00021938,-0.00008017,0.00010713,-0.00079600,0.00133180,0.00004251,0
 .00014801,-0.00057140,0.00091891,0.00144924,-0.00127831,0.00903899,-0.
 01964471,-0.14863811,0.08736792,0.00266042,-0.01708146,-0.00018818,-0.
 00210843,0.00555994,-0.00083067,-0.00064356,-0.00302915,-0.00346535,-0
 .00063471,0.00177611,0.00239319,-0.00024185,-0.00016981,-0.00071846,-0
 .00000302,-0.00053496,0.00011005,0.00012698,0.00115659,0.00058565,0.00
 036782,-0.00077202,-0.00057018,-0.00031982,0.00051331,0.00032284,0.000
 22324,-0.00029434,-0.00018373,0.00088840,-0.00083004,-0.00062601,0.022
 34939,0.16161368,0.00799611,0.07940666,-0.07857811,-0.00338840,0.02179
 679,0.01406356,0.00810877,-0.02138618,-0.00267703,-0.00169019,0.005788
 63,0.00203809,0.00033171,-0.00126597,-0.00182736,0.00015052,-0.0001707
 4,0.00056728,0.00089212,0.00224637,-0.00238167,-0.00039043,-0.00104857
 ,-0.00054235,-0.00027831,0.00063134,0.00043259,0.00005754,-0.00003875,
 0.00034441,-0.00001145,0.00000898,-0.00017935,-0.00004837,0.00010174,-
 0.00066052,-0.01200119,-0.08603252,0.06317879,0.00031554,-0.00091453,0
 .00028505,0.00026746,0.00045478,0.00038634,-0.00155236,-0.00090819,-0.
 00256394,-0.01518958,-0.00223432,-0.01744936,-0.17298950,0.06666877,-0
 .02665632,-0.02743291,0.00863807,0.00729799,-0.00072674,-0.00039428,0.
 00126310,-0.00042313,0.00000035,-0.00003988,0.00025077,0.00004552,0.00
 002635,-0.00029356,0.00016144,0.00020474,0.00020069,-0.00010330,-0.000
 17286,0.00031575,-0.00007760,-0.00004243,0.00003190,0.00017615,-0.0001
 6058,0.21850726,0.00023908,0.00188416,0.00167675,0.00081041,-0.0025968
 5,-0.00094141,-0.00235152,-0.00220212,-0.00342936,-0.00942312,0.006636
 98,-0.00812911,0.06987507,-0.06833383,0.01962417,0.00088604,0.00468634
 ,-0.00157987,-0.00013016,-0.00010143,0.00077362,0.00003139,0.00020583,
 0.00001377,0.00004581,-0.00022091,-0.00000545,0.00006433,0.00008401,-0
 .00025782,-0.00005414,-0.00000891,0.00012734,-0.00032069,-0.00012175,0
 .00021472,0.00000864,-0.00050791,0.00049804,-0.07732642,0.07030320,0.0
 0001397,0.00226870,0.00177361,0.00104039,-0.00261403,-0.00097561,-0.00
 427209,-0.00302686,-0.00485209,-0.02307312,0.00220313,-0.01917529,-0.0
 2767936,0.01439943,-0.03366059,0.01775500,-0.00434721,0.00074955,0.002
 04447,-0.00010410,-0.00089081,-0.00022773,-0.00029242,-0.00027461,0.00
 018913,0.00013819,0.00013917,-0.00010841,0.00032086,-0.00010143,0.0001
 0244,-0.00009578,0.00000673,-0.00018694,-0.00021247,0.00025620,-0.0000
 8034,-0.00057620,0.00038772,0.03794572,-0.01445460,0.05482274,0.000958
 66,0.00039853,0.00220726,0.00029129,-0.00239391,-0.00134213,0.00090700
 ,-0.00309341,0.00029399,-0.00221279,-0.01099944,-0.00842245,-0.0358518
 3,-0.00809555,0.00552717,-0.00271408,-0.01676753,0.01290643,-0.0011254
 2,-0.00031000,0.00056799,-0.00055695,-0.00047962,-0.00009400,0.0001440
 0,0.00029697,0.00008227,-0.00030438,0.00018021,0.00020431,0.00018995,-
 0.00009988,-0.00016816,0.00034579,-0.00006291,0.00000340,0.00030262,-0
 .00000670,0.00022579,0.00001563,0.01745981,-0.00550141,0.04230969,-0.0
 0545538,-0.00425987,-0.00401673,0.00002820,0.00552513,0.00292405,-0.00
 259164,-0.00307251,-0.00510280,-0.00403611,-0.02177352,-0.00755247,-0.
 01059776,-0.18404125,0.05059101,-0.00793988,-0.00631618,0.01156911,-0.
 00036961,-0.00080698,0.00000106,-0.00027479,0.00019057,0.00002849,0.00
 033620,-0.00016243,0.00004376,-0.00027695,0.00033694,0.00012507,0.0002
 0263,-0.00016672,-0.00013488,0.00006654,-0.00028483,0.00008237,0.00060
 726,0.00051897,-0.00036719,0.00592335,-0.01082137,0.00629585,0.0244137
 4,0.22441505,0.00294238,0.00086242,0.00101112,0.00052240,-0.00272343,-
 0.00146285,-0.00014597,-0.00557553,0.00296417,-0.00842700,-0.02432325,
 -0.01482690,0.00193477,0.05987207,-0.04649808,0.01183794,0.02049429,-0
 .01056790,0.00055516,-0.00011492,-0.00022737,0.00003355,0.00033616,0.0
 0012019,0.00004170,-0.00019941,-0.00001976,0.00004088,-0.00007138,0.00
 001534,-0.00001989,0.00000726,-0.00000879,0.00008067,0.00006827,-0.000
 09579,-0.00023773,0.00008497,0.00036765,-0.00165963,0.00647384,0.00261
 546,-0.00909945,-0.05504169,0.06818415,-0.00033264,0.00022592,-0.00002
 660,-0.00019089,-0.00013325,-0.00022909,0.00107945,-0.00038168,0.00037
 416,-0.00074586,-0.00011831,-0.00144413,-0.01410102,-0.02036484,0.0101
 2914,-0.05170330,-0.05426336,-0.00208088,0.00187995,0.01861748,0.00046
 518,-0.00263497,0.00651569,-0.00026036,0.00038047,-0.00306067,-0.00000
 417,-0.00016525,0.00022226,-0.00022743,0.00032225,-0.00029106,-0.00010
 040,-0.00007255,-0.00032940,0.00028860,0.00005689,-0.00003632,0.000067
 23,-0.00063603,-0.00034444,0.00040731,-0.00102575,-0.00029333,0.001521
 50,0.07225637,-0.00027335,0.00050523,-0.00029708,-0.00002216,-0.000071
 99,0.00002985,0.00075427,-0.00066143,0.00032654,-0.00160653,-0.0005549
 6,-0.00144273,-0.01349785,-0.00837179,0.01223921,-0.05470989,-0.182614
 17,-0.00914295,0.00781326,-0.03168292,-0.00035315,0.00309539,0.0013940
 0,0.00155675,0.00116780,-0.00230528,0.00037836,0.00007533,-0.00057744,
 -0.00051896,-0.00021798,0.00012789,0.00025937,-0.00026697,0.00010635,0
 .00000685,0.00002769,-0.00007398,0.00008766,-0.00044998,0.00029412,-0.
 00023481,-0.00044522,-0.00058295,-0.00009275,0.06318567,0.23381443,-0.
 00020837,-0.00096819,-0.00033245,0.00017244,0.00071357,0.00057888,-0.0
 0027121,0.00048704,-0.00170053,-0.00019520,-0.00002140,0.00139125,0.01
 560535,0.01864155,-0.00445037,-0.00392189,-0.01005470,-0.03119711,0.00
 006850,0.00187921,0.00302774,-0.00153993,0.00240077,0.00120085,0.00070
 984,-0.00104331,-0.00095252,-0.00046134,0.00009194,0.00058751,0.000316
 94,-0.00012729,-0.00040654,0.00034476,-0.00019357,-0.00009258,0.000048
 52,0.00019008,-0.00010307,0.00036277,0.00018345,-0.00006470,0.00150398
 ,0.00018256,-0.00162143,-0.00193262,0.00438816,0.03879782,-0.00003447,
 -0.00076482,-0.00033454,0.00020806,0.00062155,0.00030672,-0.00130456,0
 .00059137,-0.00033324,0.00051683,0.00008204,0.00389698,0.00439870,0.00
 016992,0.01415933,-0.06299056,-0.00497426,-0.06853015,-0.01920805,0.00
 847640,-0.01963608,-0.00144814,0.00130337,-0.00063466,0.00029842,0.000
 01343,0.00021556,-0.00022095,-0.00018953,-0.00002271,0.00002048,0.0000
 3170,0.00004904,0.00015524,0.00000562,-0.00004866,0.00002255,0.0001518
 3,-0.00010655,0.00000168,-0.00005877,0.00107591,-0.00069921,-0.0001844
 1,0.00000042,-0.00306567,-0.00658125,-0.01006444,0.08440291,-0.0003079
 9,-0.00009220,-0.00019614,-0.00000478,0.00013495,0.00009226,0.00022813
 ,-0.00047508,-0.00006758,-0.00092107,-0.00001353,-0.00038379,-0.000469
 17,0.00363391,0.00717184,-0.00466014,-0.03046082,-0.01602744,0.0146719
 5,-0.00160552,0.01415556,0.00098522,-0.00060038,0.00018866,-0.00027271
 ,-0.00057926,-0.00001594,0.00009026,0.00029892,-0.00010290,0.00008074,
 -0.00016625,-0.00005397,-0.00011692,-0.00013388,0.00010199,0.00005191,
 0.00004437,0.00005468,0.00009831,0.00039040,-0.00034220,-0.00047780,-0
 .00010920,0.00016338,-0.01092772,-0.00664185,-0.01720405,0.00009095,0.
 03640286,0.00013449,-0.00051854,0.00018740,0.00000758,0.00006209,0.000
 28040,0.00005965,0.00031850,-0.00064874,0.00123800,0.00016753,-0.00089
 186,0.00433896,-0.00021601,-0.03742737,-0.06880792,-0.01109528,-0.1748
 1289,-0.01206432,0.00524842,-0.00622216,-0.00080432,-0.00013083,-0.000
 10891,0.00047917,0.00021287,0.00018601,-0.00049104,0.00044218,0.000358
 38,0.00034331,-0.00021213,-0.00036392,0.00030259,-0.00018215,0.0000225
 0,-0.00000067,0.00010857,-0.00004618,0.00072897,-0.00017358,-0.0000216
 0,0.00061976,0.00074513,-0.00032548,-0.00652734,-0.00727396,-0.0050007
 5,0.08045896,0.01190925,0.22392668,-0.00040832,-0.00001140,-0.00044915
 ,-0.00003448,0.00014369,0.00002762,0.00010284,-0.00018459,0.00008758,-
 0.00014722,-0.00000990,-0.00016229,-0.00137148,0.00123060,0.00047929,-
 0.01188373,0.01620347,0.01573876,-0.03939443,0.01719662,0.03003163,0.0
 0209168,-0.00991352,-0.02172777,-0.00322308,-0.00241067,0.00059498,-0.
 00125547,-0.00065945,-0.00164844,-0.00022809,0.00058971,0.00107003,-0.
 00018159,-0.00020229,0.00056741,0.00007241,-0.00000631,0.00003444,-0.0
 0021046,-0.00007003,0.00013602,-0.00001508,0.00016854,0.00000737,-0.00
 044310,0.00065967,-0.00014771,-0.00044475,0.00089629,0.00034538,0.0550
 9677,-0.00012927,-0.00119170,-0.00068909,-0.00008604,0.00075775,0.0002
 8809,0.00027219,-0.00034007,-0.00031634,-0.00013354,0.00007567,0.00021
 928,0.00086712,-0.00108797,0.00026614,0.01586704,-0.01349811,-0.016353
 22,0.01853266,-0.05806062,-0.06363365,-0.00983679,-0.00818195,-0.02044
 473,-0.00081525,-0.00020653,0.00074117,-0.00112436,0.00151129,0.001239
 01,0.00042259,-0.00070143,-0.00061087,0.00024733,-0.00094913,-0.000060
 76,-0.00000802,0.00015457,0.00010682,0.00019024,0.00011549,0.00000033,
 -0.00013121,0.00021987,0.00011256,0.00074036,-0.00088142,-0.00000628,0
 .00061024,0.00037500,-0.00004463,-0.02331678,0.07694315,-0.00013356,0.
 00039094,0.00172973,0.00014765,-0.00108904,-0.00032780,-0.00025618,0.0
 0072977,-0.00003705,0.00011942,-0.00020904,0.00000965,-0.00034734,0.00
 024824,-0.00016379,0.00647594,-0.00629541,-0.00102898,0.03329358,-0.07
 063027,-0.17372400,-0.01003384,-0.01552218,-0.01981875,-0.00026720,0.0
 0125978,0.00079440,-0.00257102,0.00105105,0.00117883,0.00055388,-0.000
 42451,-0.00126252,0.00067127,-0.00036236,0.00006052,0.00001774,-0.0000
 0730,0.00007777,0.00007292,-0.00008731,0.00003540,0.00020619,0.0000015
 7,-0.00003839,-0.00021874,-0.00015143,0.00009207,-0.00035322,0.0003657
 4,0.00121155,-0.03344416,0.08806968,0.21151670,-0.00253307,-0.00040252
 ,-0.00270632,-0.00040958,0.00205900,0.00054169,0.00120667,-0.00098942,
 0.00025546,-0.00052700,0.00017794,-0.00002947,-0.00148456,0.00276356,0
 .00031629,0.00022361,0.01639958,-0.00949183,-0.04102280,-0.02926877,0.
 02373699,-0.01568347,-0.02575245,0.00819627,-0.00096992,0.00084762,-0.
 00201190,-0.00366989,0.00065463,-0.00102490,0.00081197,-0.00053535,-0.
 00043907,-0.00002760,0.00001247,0.00088648,-0.00006840,-0.00022892,-0.
 00067374,-0.00008247,0.00013250,-0.00000420,-0.00052428,0.00011941,0.0
 0030309,-0.00120162,0.00095943,-0.00011679,-0.00042475,0.00076910,-0.0
 0011127,0.00151823,-0.00235707,0.00643198,0.06469213,-0.00058834,-0.00
 575419,-0.01399240,-0.00074417,0.00874882,0.00313974,0.00167563,-0.004
 52446,-0.00229180,0.00025209,0.00150703,0.00284249,0.00210875,-0.00277
 673,-0.00220851,0.00941260,-0.02405364,0.01282694,-0.02281577,-0.11395
 914,0.06840364,-0.02654732,-0.02209691,0.00047177,0.00075518,0.0023647
 4,0.00087402,-0.00227760,0.00394249,-0.00085574,0.00142771,-0.00150767
 ,-0.00058777,-0.00076194,-0.00225099,0.00080418,0.00015812,-0.00025642
 ,-0.00077152,-0.00001465,0.00027967,0.00061868,0.00056261,0.00098855,-
 0.00029088,0.00091247,-0.00123124,0.00032175,0.00056494,-0.00044566,0.
 00054772,-0.00022585,0.00456044,0.00257233,0.03433831,0.15522966,0.002
 73166,0.00401512,0.00388361,0.00082481,-0.01249989,-0.00499688,-0.0007
 9721,0.00511105,0.00226718,-0.00112868,-0.00239376,-0.00474529,0.00006
 519,0.00169287,0.00423496,-0.00503674,0.00952695,-0.00146512,0.0135398
 9,0.05499879,-0.07469515,0.00726860,0.00470178,0.01372731,-0.00131941,
 -0.00394804,-0.00452749,0.00097506,-0.00243316,0.00229258,-0.00060169,
 0.00044732,-0.00078358,0.00195567,0.00184022,-0.00214279,-0.00060246,0
 .00110659,0.00460390,0.00017355,-0.00042602,-0.00063390,0.00034390,-0.
 00034385,0.00034269,-0.00009638,0.00019845,0.00022271,-0.00013491,0.00
 022097,-0.00025525,0.00862887,0.01092202,-0.02006120,-0.02259902,-0.07
 256687,0.08267100,0.00120854,-0.00121475,-0.00039437,-0.00014843,0.001
 13895,0.00040808,0.00013251,-0.00062755,-0.00010908,0.00005472,0.00022
 696,0.00023262,0.00007464,-0.00012634,-0.00010211,0.00005816,-0.000042
 66,0.00011679,0.00010700,-0.00039347,0.00006254,0.00050892,0.00113612,
 0.00094195,-0.00016665,-0.00040222,-0.00020822,0.00404524,0.00642242,-
 0.00974278,-0.00195099,0.00037569,0.00154840,-0.09480959,0.08790887,-0
 .00345146,-0.00042129,0.00011455,-0.00001029,-0.00004203,0.00004217,0.
 00001741,-0.00003655,-0.00001431,0.00000304,0.00000795,0.00004978,-0.0
 0003045,-0.00001405,0.00000931,-0.00004288,-0.00003976,0.00004296,-0.0
 0009767,-0.00014001,0.00018419,-0.00016705,0.10388858,-0.00121522,-0.0
 0069527,0.00004949,-0.00005040,0.00007982,-0.00009308,0.00034737,-0.00
 021125,0.00013619,-0.00016365,0.00003718,-0.00014925,0.00000385,0.0000
 5513,0.00007390,-0.00007094,-0.00004633,-0.00010913,-0.00028428,-0.000
 26512,-0.00018500,0.00120629,-0.00006928,0.00091226,-0.00041689,0.0003
 9320,-0.00012213,0.01013490,-0.01787881,0.01845777,0.00064434,-0.00019
 728,-0.00236764,0.08450941,-0.16056064,0.00661807,-0.00004088,0.000305
 71,-0.00000651,0.00003222,-0.00001124,0.00000186,0.00003090,0.00004916
 ,-0.00000110,0.00004252,-0.00000874,0.00003777,0.00001847,0.00001424,0
 .00003648,0.00000735,0.00010608,0.00004022,0.00006426,0.00022738,-0.00
 001650,-0.10832566,0.19360019,0.00020318,-0.00009516,-0.00055834,-0.00
 004388,0.00022893,0.00003811,0.00013508,-0.00024421,0.00012219,-0.0000
 9099,0.00007965,-0.00009129,0.00001054,0.00002625,0.00007449,-0.000048
 95,-0.00007282,-0.00003940,-0.00037691,-0.00028821,0.00031100,-0.00016
 711,0.00132260,-0.00303867,-0.00013979,-0.00008321,0.00041879,-0.01501
 618,0.02872319,-0.01076614,0.00015623,-0.00146607,0.00088485,-0.001505
 51,0.00361820,-0.03514386,0.00008463,0.00002587,0.00013159,-0.00000035
 ,-0.00000093,0.00000242,-0.00000928,0.00001127,0.00000520,0.00001530,-
 0.00000439,0.00001837,0.00000153,0.00000850,0.00001082,-0.00000943,0.0
 0015577,0.00003889,-0.00017494,0.00015920,-0.00007914,0.00769520,-0.01
 520716,0.04368406,0.01249678,-0.00658050,-0.00272732,-0.00139456,0.011
 48318,0.00473987,0.00097942,-0.00473925,-0.00239697,0.00094738,0.00232
 096,0.00376572,0.00052442,-0.00174571,-0.00229646,-0.00052309,-0.00050
 076,0.00061940,-0.00354340,-0.00111216,0.00187311,0.00561019,-0.001208
 95,-0.00099279,-0.00248911,0.00200025,0.00042943,-0.00082589,-0.012585
 40,0.02643495,-0.00012194,0.00022586,-0.00527325,-0.15755702,-0.028452
 50,0.02939138,-0.00243068,-0.00301320,0.00100758,-0.00026025,0.0004143
 4,0.00036591,-0.00034362,0.00021451,-0.00023158,0.00031698,0.00022262,
 -0.00016556,-0.00013669,0.00016214,-0.00014843,0.00036325,0.00018226,-
 0.00017647,0.00035703,0.00159994,-0.00366788,-0.01815268,0.00527124,0.
 00344113,0.17915645,0.00409923,-0.00585427,-0.00059872,-0.00058527,0.0
 0252122,0.00027896,0.00191317,-0.00238612,0.00046312,-0.00060312,0.000
 65353,-0.00023732,0.00016798,-0.00000900,0.00007994,-0.00012007,-0.000
 11539,-0.00016064,-0.00047779,-0.00092594,-0.00011911,0.00181346,-0.00
 116535,0.00277119,-0.00045388,0.00019933,-0.00034347,-0.01364563,-0.00
 271120,0.01203159,0.00097484,-0.00027744,0.00066653,-0.03659835,-0.044
 96844,0.01132751,-0.00208545,0.00041114,0.00049124,0.00003297,0.000030
 15,0.00004095,0.00002232,0.00013919,-0.00003327,0.00007278,0.00000224,
 0.00008195,0.00002030,0.00002492,0.00004505,-0.00002798,0.00022424,0.0
 0004745,0.00028281,0.00088654,-0.00011194,0.01476553,0.00384924,-0.002
 82412,0.04616025,0.05333813,-0.00429937,0.00066327,-0.00403438,0.00003
 388,-0.00076795,-0.00086739,0.00084614,-0.00094257,0.00159465,-0.00081
 961,0.00011733,-0.00152121,0.00005726,0.00050771,0.00094495,0.00014544
 ,-0.00000918,-0.00014121,0.00035736,-0.00032769,-0.00027858,-0.0017187
 2,0.00343400,-0.00068213,0.00076964,-0.00180204,-0.00093880,0.02455922
 ,0.01578130,-0.01966134,-0.00132350,-0.00035261,-0.00264170,0.03909679
 ,0.01079821,-0.04177565,0.00143586,0.00083869,0.00069804,0.00001823,-0
 .00009222,-0.00010736,-0.00001955,-0.00001546,0.00005746,-0.00006655,-
 0.00000298,0.00001944,0.00002795,-0.00002161,-0.00002211,-0.00009418,0
 .00009177,-0.00019003,-0.00109168,0.00015911,-0.00008501,0.00300236,-0
 .00081798,0.00346692,-0.05033869,-0.02242838,0.06202301,0.00179079,0.0
 0002119,0.00017478,0.00010259,0.00069195,0.00064176,-0.00085399,0.0003
 0651,-0.00076739,0.00052280,0.00000983,0.00082958,0.00001663,-0.000301
 40,-0.00044225,0.00000378,-0.00004005,0.00020757,-0.00012681,0.0000249
 8,0.00029585,-0.00008327,0.00075112,-0.00079814,-0.00041072,-0.0000733
 5,0.00020435,0.00479348,-0.00156434,-0.00500915,-0.00168345,-0.0001861
 5,0.00084764,-0.04994700,-0.03870779,-0.04654610,-0.00030612,-0.000171
 10,-0.00011265,-0.00006778,0.00006973,0.00003987,-0.00005493,-0.000046
 11,-0.00000339,0.00001866,0.00006037,-0.00007768,-0.00003310,0.0000239
 5,-0.00005862,0.00003583,-0.00003676,-0.00009126,-0.00003996,0.0000231
 7,-0.00035585,0.00583566,0.00825471,0.00584040,-0.01297327,-0.01572834
 ,-0.01057780,0.05345996,0.00109618,-0.00115245,-0.00016611,-0.00033730
 ,0.00126459,0.00023832,0.00078926,-0.00094951,0.00023773,-0.00021727,0
 .00030800,-0.00007749,0.00007098,-0.00001734,0.00005988,0.00002142,-0.
 00004415,-0.00002499,-0.00017036,-0.00035571,-0.00015196,-0.00006697,0
 .00049971,0.00169594,0.00005576,-0.00128165,-0.00116994,0.00272539,0.0
 0985947,-0.00007095,-0.00149336,-0.00151128,0.00218905,-0.03717319,-0.
 10744810,-0.08344026,-0.00023486,0.00013323,-0.00013055,0.00000108,0.0
 0001587,0.00001278,-0.00000167,0.00001428,-0.00000762,0.00000941,0.000
 01603,0.00001902,0.00000093,0.00000392,0.00000348,-0.00005738,0.000055
 12,0.00000227,-0.00004607,0.00012171,-0.00004215,-0.00127063,-0.018773
 28,-0.01407310,-0.01031899,-0.00386686,-0.00481070,0.04661771,0.123108
 52,0.00075664,-0.00030597,-0.00094583,-0.00025718,0.00077240,-0.000000
 81,0.00063278,-0.00097163,0.00071471,-0.00035917,0.00031399,-0.0005111
 7,0.00009060,0.00010855,0.00035137,0.00018687,0.00007206,0.00006652,0.
 00081445,-0.00028515,-0.00006779,-0.00060665,0.00262945,0.00011922,0.0
 0014094,-0.00066944,-0.00030412,-0.01087710,-0.01105729,-0.03984912,0.
 00094087,0.00215578,0.00024651,-0.04356057,-0.08354224,-0.12190495,0.0
 0002644,0.00006443,0.00010438,-0.00002032,-0.00000808,-0.00003100,-0.0
 0003608,-0.00002619,0.00000932,-0.00005366,0.00004411,-0.00001446,0.00
 000686,-0.00001703,-0.00003643,-0.00006620,-0.00005297,-0.00009308,-0.
 00019317,-0.00017578,0.00022473,0.00032794,-0.00728836,0.00050888,-0.0
 0365279,-0.00146856,0.00414209,0.05575850,0.09970790,0.15727110\\-0.00
 000002,-0.00000016,-0.00000010,0.00000051,-0.00000038,0.00000060,-0.00
 000009,0.00000024,-0.00000001,-0.00000034,0.00000045,-0.00000012,-0.00
 000023,-0.00000007,0.00000004,-0.00000002,0.00000015,-0.00000020,0.,-0
 .00000021,-0.00000015,0.00000008,-0.00000018,-0.00000003,0.00000010,0.
 00000080,0.00000021,-0.00000004,0.00000013,0.00000015,0.00000035,-0.00
 000024,-0.00000057,0.00000005,-0.00000013,0.00000019,-0.00000001,-0.00
 000007,0.00000001,-0.00000021,0.00000009,-0.00000003,-0.00000006,-0.00
 000024,0.00000002,0.00000007,0.00000023,-0.00000001,-0.00000010,0.,-0.
 00000023,0.00000005,-0.00000012,-0.00000020,-0.00000006,-0.00000022,0.
 00000014,0.00000012,-0.00000016,0.00000004,-0.00000018,-0.00000007,0.0
 0000009,0.00000005,0.00000014,0.00000015\\\@


 Mondays are the potholes in the road of life.
                                -- Tom Wilson
 Job cpu time:       0 days  0 hours  0 minutes  1.1 seconds.
 File lengths (MBytes):  RWF=     32 Int=      0 D2E=      0 Chk=      2 Scr=      1
 Normal termination of Gaussian 09 at Tue Feb 23 12:28:07 2021.
