5
Properties=species:S:1:pos:R:3 energy=-7192.83318866988 pbc="F F F"
O        0.88818300      -0.02539100      -0.08170800
C        0.14985100      -0.97978000       0.57353900
O        0.96640700      -1.87045600       1.18382800
O       -1.04921900      -0.99416400       0.58438900
H        1.87267600      -0.14421100      -0.00099000
