22
Properties=species:S:1:pos:R:3:momenta:R:3:forces:R:3 pbc="F F F"
O        0.60057406       1.29417228      -1.22265418      -0.31556158      -0.71421114      -2.20201954      -0.51856690       0.21943381       1.48772594
O        0.50685635      -0.26480564      -2.35374934       0.32545747       1.85790503       0.76932979       2.67811636       3.13331900       0.06332866
C        1.14442672      -1.00258928      -1.75255509      -0.92464554       0.24852679      -0.77458541      -2.40973806      -3.69764333      -2.35445396
O        1.92812752      -1.58514731      -0.94196242      -0.40257647       0.96828240       0.84386309       0.07947549      -0.03226204      -0.01416558
C        2.29890600      -0.73032953       0.29014628      -1.19871535       1.45335260       1.04917410      -0.08589344       0.51261260       0.89593281
C        1.25067424      -0.95527630       1.35309576       0.12711023      -0.10759203      -0.82876522       0.07311496      -0.04188541      -0.03892826
C        0.08462842       0.02362060       1.24552257      -0.16685987      -0.07025282       0.10300999       0.10017540      -0.02732455       0.03533758
C       -1.15323912      -0.58117957       0.65147398      -0.00980496      -0.81025386       0.34072392       0.04044063      -0.02342055       0.18870538
O       -1.25111071      -1.72352875       0.26562778      -1.26326260       1.07147041      -0.90149079      -0.02296733      -0.02836556      -0.11709495
C       -2.31258460       0.43593766       0.47974848       0.21752625      -0.73106816       0.59082942       0.04632785       0.08717805       0.03298970
O       -3.05451592       0.68176887       1.39729992      -0.22816094      -0.07527474       3.10816371       0.10535223       0.05930599       0.00647017
C       -2.32232012       1.04708661      -0.86857763      -0.47736034      -0.87189226      -0.02404733       0.01932652       0.03181701       0.00950534
H        0.70952458       2.07842757      -1.68738250       0.11537434      -0.00652104       0.08527957      -0.02451355       0.03696536      -0.03610515
H        3.27926878      -1.19325551       0.49167172       0.32304488      -0.24900299      -0.13969346       0.12860755      -0.16311305      -0.01910181
H        2.37054471       0.32419713      -0.05970914       0.45050878      -0.25468115      -0.01203865      -0.06747962       0.03664292      -0.04269186
H        0.86742585      -2.00579925       1.29824157      -0.01589708      -0.01156362       0.22488096      -0.10401653       0.00784866      -0.05012883
H        1.72517642      -0.87791877       2.35536369      -0.45241485       0.03940158      -0.45786668      -0.02191611       0.02259740      -0.00499608
H       -0.14813358       0.48808633       2.22349220      -0.40947713       0.34240077       0.47139338      -0.02924691      -0.05208137      -0.02127876
H        0.36810100       0.90953933       0.56743911      -0.23673123      -0.30371200      -0.34062019       0.00877276       0.01669284       0.00131766
H       -2.94163781       1.95039638      -0.91678357      -0.08040606      -0.07105818       0.29167301       0.00640175      -0.01781483      -0.05489060
H       -1.26750196       1.33480332      -1.17931379       0.18895875       0.32024623       0.30377185       0.03058963       0.00983382       0.02631766
H       -2.68319083       0.35179382      -1.63643543      -0.33675502      -0.06574222       0.05517584      -0.03236269      -0.09033677       0.00620495
