3
Properties=species:S:1:pos:R:3 energy=-6133.126223227492 pbc="F F F"
O        1.07464600       0.01791100       0.15727800
O        2.22551800      -0.00026600      -0.04289700
O        2.79863900      -0.09233200      -1.05678400
