19
Properties=species:S:1:pos:R:3 energy=-7455.683147293814 pbc="F F F"
C        1.04078300       0.02321300      -0.04806900
C        0.58400300      -1.40373000      -0.04090200
C        1.44234200      -2.42724000      -0.15784500
C        1.01975300      -3.86630500      -0.17324000
C       -0.41742100      -4.06977800       0.33140600
C       -1.35551100      -3.01214700      -0.26394000
C       -0.90108200      -1.59801400       0.12719200
H        0.65147400       0.57440900       0.81773700
H        0.69332600       0.54169700      -0.95205800
H        2.13388300       0.11600300      -0.02360200
H        2.51202900      -2.26695300      -0.26734700
H        1.71845100      -4.47021900       0.43921100
H        1.11206100      -4.25150300      -1.21069800
H       -0.43586400      -4.00487900       1.43627500
H       -0.77076500      -5.08433300       0.07434400
H       -1.36980000      -3.10595600      -1.36707700
H       -2.39267000      -3.18379600       0.07604700
H       -1.45730800      -0.84989800      -0.47048300
H       -1.16513200      -1.39770900       1.18648900
