9
Properties=species:S:1:pos:R:3 energy=-724.8416681181226 pbc="F F F"
C       -7.07514200       0.65495800       1.06400100
C       -5.69546900       1.06081800       1.39239500
H       -7.63845500       0.35288200       1.96448500
H       -7.08869600      -0.19820000       0.37349600
H       -7.63338400       1.47492600       0.59401900
C       -4.84196200       1.20875600       2.37857800
H       -3.82854600       1.55987400       2.21736600
O       -5.02316200       0.96753600       3.76216600
H       -5.95123800       0.64481300       3.91879700
9
Properties=species:S:1:pos:R:3 energy=-724.8731527198414 pbc="F F F"
C       -7.07328807       0.65938557       1.06607766
C       -5.70326137       1.06492171       1.40284014
H       -7.65051352       0.38104601       1.96380191
H       -7.08937852      -0.21007940       0.39711689
H       -7.62677042       1.46621832       0.57095538
C       -4.84206440       1.20884002       2.38593839
H       -3.82145611       1.57216513       2.20849279
O       -5.02951087       0.96919362       3.75674089
H       -5.93981073       0.61467202       3.91333896
9
Properties=species:S:1:pos:R:3 energy=-724.8903756025785 pbc="F F F"
C       -7.07189309       0.66378849       1.06812634
C       -5.71079610       1.06936977       1.41251652
H       -7.66253963       0.40957433       1.96264934
H       -7.09026666      -0.22146019       0.42155551
H       -7.62031912       1.45654143       0.54814645
C       -4.84217398       1.20964583       2.39234513
H       -3.81520759       1.58347635       2.20168726
O       -5.03561918       0.97067699       3.75124017
H       -5.92723865       0.58475000       3.90703628
9
Properties=species:S:1:pos:R:3 energy=-724.896757962699 pbc="F F F"
C       -7.07093735       0.66816028       1.07014441
C       -5.71807899       1.07414183       1.42143388
H       -7.67451042       0.43841227       1.96105436
H       -7.09134704      -0.23234992       0.44674409
H       -7.61403798       1.44595098       0.52561308
C       -4.84228397       1.21115620       2.39778364
H       -3.80979320       1.59382236       2.19690944
O       -5.04147640       0.97198199       3.74569346
H       -5.91358864       0.55508701       3.89992663
9
Properties=species:S:1:pos:R:3 energy=-724.8954446572718 pbc="F F F"
C       -7.07040112       0.67249450       1.07212926
C       -5.72511585       1.07921758       1.42960192
H       -7.68640299       0.46750512       1.95904405
H       -7.09260631      -0.24275614       0.47261490
H       -7.60793487       1.43450258       0.50337612
C       -4.84238764       1.21335390       2.40223933
H       -3.80520568       1.60321785       2.19411932
O       -5.04707199       0.97310446       3.74013040
H       -5.89892756       0.52572314       3.89204770
9
Properties=species:S:1:pos:R:3 energy=-724.8892578821519 pbc="F F F"
C       -7.07026468       0.67678468       1.07407826
C       -5.73191249       1.08457667       1.43703037
H       -7.69819442       0.49679820       1.95664548
H       -7.09403109      -0.25268640       0.49910020
H       -7.60201766       1.42225189       0.48145643
C       -4.84247823       1.21622171       2.40569759
H       -3.80143777       1.61167752       2.19327691
O       -5.05239540       0.97404027       3.73458061
H       -5.88332227       0.49669846       3.88343716
9
Properties=species:S:1:pos:R:3 energy=-724.880658058803 pbc="F F F"
C       -7.07050832       0.68102435       1.07598878
C       -5.73847472       1.09019878       1.44372895
H       -7.70986180       0.52623681       1.95388572
H       -7.09560802      -0.26214826       0.52613222
H       -7.59629421       1.40925453       0.45987486
C       -4.84254898       1.21974241       2.40814384
H       -3.79848221       1.61921606       2.19434223
O       -5.05743610       0.97478527       3.72907372
H       -5.86683965       0.46805304       3.87413268
9
Properties=species:S:1:pos:R:3 energy=-724.8717082120639 pbc="F F F"
C       -7.07111232       0.68520707       1.07785821
C       -5.74480834       1.09606356       1.44970738
H       -7.72138223       0.55576626       1.95079185
H       -7.09732373      -0.27114926       0.55364324
H       -7.59077241       1.39556614       0.43865226
C       -4.84259314       1.22389878       2.40956349
H       -3.79633175       1.62584816       2.19727528
O       -5.06218355       0.97533534       3.72363936
H       -5.84954655       0.43982696       3.86417194
9
Properties=species:S:1:pos:R:3 energy=-724.8640399349526 pbc="F F F"
C       -7.07205695       0.68932636       1.07968391
C       -5.75091915       1.10215070       1.45497537
H       -7.73273279       0.58533183       1.94739095
H       -7.09916486      -0.27969695       0.58156550
H       -7.58546011       1.38124235       0.41780949
C       -4.84260395       1.22867357       2.40994195
H       -3.79497914       1.63158853       2.20203607
O       -5.06662720       0.97568632       3.71830716
H       -5.83150986       0.41206028       3.85359261
9
Properties=species:S:1:pos:R:3 energy=-724.8588206531848 pbc="F F F"
C       -7.07332250       0.69337577       1.08146327
C       -5.75681296       1.10843986       1.45954264
H       -7.74389058       0.61487885       1.94371009
H       -7.10111805      -0.28779890       0.60983126
H       -7.58036520       1.36633880       0.39736740
C       -4.84257468       1.23404959       2.40926461
H       -3.79441711       1.63645186       2.20858460
O       -5.07075651       0.97583407       3.71310675
H       -5.81279642       0.38479309       3.84243237
9
Properties=species:S:1:pos:R:3 energy=-724.8567234654213 pbc="F F F"
C       -7.07488925       0.69734885       1.08319366
C       -5.76249558       1.11491070       1.46341893
H       -7.75483268       0.64435262       1.93977634
H       -7.10316992      -0.29546264       0.63837278
H       -7.57549553       1.35091113       0.37734686
C       -4.84249855       1.24000959       2.40751689
H       -3.79463842       1.64045284       2.21688090
O       -5.07456095       0.97577446       3.70806775
H       -5.79347312       0.35806546       3.83072889
9
Properties=species:S:1:pos:R:3 energy=-724.8579020761831 pbc="F F F"
C       -7.07673748       0.70123912       1.08487245
C       -5.76797281       1.12154290       1.46661393
H       -7.76553620       0.67369843       1.93561679
H       -7.10530710      -0.30269573       0.66712230
H       -7.57085899       1.33501496       0.35776872
C       -4.84236883       1.24653635       2.40468421
H       -3.79563581       1.64360617       2.22688495
O       -5.07802996       0.97550335       3.70321980
H       -5.77360682       0.33191746       3.81851986
9
Properties=species:S:1:pos:R:3 energy=-724.8619743058454 pbc="F F F"
C       -7.07884747       0.70504012       1.08649703
C       -5.77325046       1.12831612       1.46913738
H       -7.77597821       0.70286159       1.93125850
H       -7.10751624      -0.30950572       0.69601208
H       -7.56646344       1.31870594       0.33865382
C       -4.84217875       1.25361265       2.40075195
H       -3.79740202       1.64592654       2.23855678
O       -5.08115303       0.97501659       3.69859252
H       -5.75326439       0.30638917       3.80584294
9
Properties=species:S:1:pos:R:3 energy=-724.8680183467882 pbc="F F F"
C       -7.08119950       0.70874541       1.08806477
C       -5.77833434       1.13521003       1.47099899
H       -7.78613582       0.73178741       1.92672854
H       -7.10978397      -0.31590016       0.72497438
H       -7.56231675       1.30203969       0.32002304
C       -4.84192156       1.26122126       2.39570554
H       -3.79992979       1.64742864       2.25185640
O       -5.08391959       0.97431005       3.69421554
H       -5.73251268       0.28152066       3.79273580
9
Properties=species:S:1:pos:R:3 energy=-724.8745861978028 pbc="F F F"
C       -7.08377385       0.71234851       1.08957305
C       -5.78323024       1.14220430       1.47220849
H       -7.79598610       0.76042120       1.92205401
H       -7.11209692      -0.32188661       0.75394145
H       -7.55842680       1.28507186       0.30189721
C       -4.84159052       1.26934497       2.38953038
H       -3.80321188       1.64812718       2.26674380
O       -5.08631911       0.97337958       3.69011849
H       -5.71141858       0.25735201       3.77923614
9
Properties=species:S:1:pos:R:3 energy=-724.8797386509428 pbc="F F F"
C       -7.08655080       0.71584297       1.09101923
C       -5.78794399       1.14927859       1.47277558
H       -7.80550616       0.78870825       1.91726196
H       -7.11444172      -0.32747260       0.78284554
H       -7.55480145       1.26785808       0.28429721
C       -4.84117886       1.27796654       2.38221187
H       -3.80724102       1.64803685       2.28317900
O       -5.08834106       0.97222105       3.68633100
H       -5.69004894       0.23392328       3.76538161
9
Properties=species:S:1:pos:R:3 energy=-724.8811056531357 pbc="F F F"
C       -7.08951064       0.71922232       1.09240071
C       -5.79248137       1.15641258       1.47271000
H       -7.81467308       0.81659387       1.91237948
H       -7.11680501      -0.33266570       0.81161891
H       -7.55144857       1.25045398       0.26724387
C       -4.84067984       1.28706875       2.37373543
H       -3.81200997       1.64717234       2.30112201
O       -5.08997488       0.97083031       3.68288269
H       -5.66847064       0.21127456       3.75120990
9
Properties=species:S:1:pos:R:3 energy=-724.8759748113488 pbc="F F F"
C       -7.09263364       0.72248011       1.09371485
C       -5.79684821       1.16358593       1.47202146
H       -7.82346395       0.84402336       1.90743363
H       -7.11917343      -0.33747346       0.84019382
H       -7.54837604       1.23291519       0.25075807
C       -4.84008670       1.29663437       2.36408647
H       -3.81751145       1.64554835       2.32053283
O       -5.09121004       0.96920322       3.67980320
H       -5.64675054       0.18944592       3.73675868
9
Properties=species:S:1:pos:R:3 energy=-724.8614093054908 pbc="F F F"
C       -7.09590009       0.72560988       1.09495903
C       -5.80105030       1.17077831       1.47071967
H       -7.83185586       0.87094203       1.90245150
H       -7.12153360      -0.34190342       0.86850252
H       -7.54559172       1.21529736       0.23486064
C       -4.83939269       1.30664619       2.35325038
H       -3.82373823       1.64317957       2.34137147
O       -5.09203600       0.96733565       3.67712216
H       -5.62495550       0.16847744       3.72206562
9
Properties=species:S:1:pos:R:3 energy=-724.8343941423592 pbc="F F F"
C       -7.09929027       0.72860516       1.09613063
C       -5.80509345       1.17796938       1.46881437
H       -7.83982592       0.89729518       1.89746016
H       -7.12387216      -0.34596314       0.89647725
H       -7.54310349       1.19765612       0.21957246
C       -4.83859105       1.31708697       2.34121259
H       -3.83068304       1.64008070       2.36359795
O       -5.09244222       0.96522345       3.67486918
H       -5.60315240       0.14840918       3.70716841
9
Properties=species:S:1:pos:R:3 energy=-724.7920072587195 pbc="F F F"
C       -7.10278445       0.73145950       1.09722703
C       -5.80898347       1.18513883       1.46631526
H       -7.84735119       0.92302812       1.89248668
H       -7.12617574      -0.34966017       0.92405029
H       -7.54091922       1.18004710       0.20491437
C       -4.83767504       1.32793950       2.32795848
H       -3.83833862       1.63626643       2.38717227
O       -5.09241816       0.96286248       3.67307391
H       -5.58140811       0.12928122       3.69210471
9
Properties=species:S:1:pos:R:3 energy=-724.7316086523915 pbc="F F F"
C       -7.10636292       0.73416643       1.09824559
C       -5.81272616       1.19226630       1.46323208
H       -7.85440879       0.94808615       1.88755814
H       -7.12843098      -0.35300206       0.95115387
H       -7.53904677       1.16252594       0.19090723
C       -4.83663790       1.33918654       2.31347349
H       -3.84669773       1.63175146       2.41205443
O       -5.09195327       0.96024861       3.67176596
H       -5.55978948       0.11113364       3.67691220
9
Properties=species:S:1:pos:R:3 energy=-724.6510380250176 pbc="F F F"
C       -7.11000595       0.73671950       1.09918370
C       -5.81632733       1.19933148       1.45957453
H       -7.86097579       0.97241457       1.88270161
H       -7.13062451      -0.35599636       0.97772026
H       -7.53749402       1.14514827       0.17757190
C       -4.83547287       1.35081087       2.29774300
H       -3.85575310       1.62655048       2.43820445
O       -5.09103702       0.95737769       3.67097498
H       -5.53836339       0.09400651       3.66162857
9
Properties=species:S:1:pos:R:3 energy=-724.5488094204878 pbc="F F F"
C       -7.11369384       0.73911224       1.10003874
C       -5.81979279       1.20631403       1.45535233
H       -7.86702929       0.99595869       1.87794417
H       -7.13274297      -0.35865063       1.00368172
H       -7.53626884       1.12796973       0.16492922
C       -4.83417321       1.36279527       2.28075243
H       -3.86549749       1.62067819       2.46558234
O       -5.08965886       0.95424558       3.67073058
H       -5.51719670       0.07793990       3.64629147
9
Properties=species:S:1:pos:R:3 energy=-724.4242918122262 pbc="F F F"
C       -7.11740686       0.74133819       1.10080807
C       -5.82312833       1.21319362       1.45057521
H       -7.87254638       1.01866381       1.87331290
H       -7.13477299      -0.36097240       1.02897048
H       -7.53537910       1.11104595       0.15300006
C       -4.83273217       1.37512252       2.26248719
H       -3.87592363       1.61414928       2.49414810
O       -5.08780826       0.95084814       3.67106239
H       -5.49635628       0.06297389       3.63093859
9
Properties=species:S:1:pos:R:3 energy=-724.2778689109659 pbc="F F F"
C       -7.12112529       0.74339090       1.10148908
C       -5.82633977       1.21994991       1.44525289
H       -7.87750415       1.04047524       1.86883486
H       -7.13670120      -0.36296924       1.05351882
H       -7.53483267       1.09443257       0.14180527
C       -4.83114298       1.38777538       2.24293269
H       -3.88702427       1.60697846       2.52386174
O       -5.08547468       0.94718123       3.67200005
H       -5.47590900       0.04914856       3.61560760
9
Properties=species:S:1:pos:R:3 energy=-724.1110810376985 pbc="F F F"
C       -7.12482941       0.74526389       1.10207914
C       -5.82943292       1.22656257       1.43939508
H       -7.88187969       1.06133829       1.86453713
H       -7.13851424      -0.36464869       1.07725898
H       -7.53463741       1.07818522       0.13136571
C       -4.82939889       1.40073664       2.22207432
H       -3.89879216       1.59918040       2.55468328
O       -5.08264756       0.94324071       3.67357318
H       -5.45592172       0.03650397       3.60033618
9
Properties=species:S:1:pos:R:3 energy=-723.9267635065747 pbc="F F F"
C       -7.12849950       0.74695073       1.10257563
C       -5.83241357       1.23301128       1.43301151
H       -7.88565010       1.08119824       1.86044679
H       -7.14019874      -0.36601831       1.10012321
H       -7.53480121       1.06235953       0.12170222
C       -4.82749316       1.41398907       2.19989751
H       -3.91122003       1.59076981       2.58657271
O       -5.07931638       0.93902244       3.67581141
H       -5.43646131       0.02508021       3.58516200
9
Properties=species:S:1:pos:R:3 energy=-723.7291917127193 pbc="F F F"
C       -7.13211585       0.74844493       1.10297593
C       -5.83528753       1.23927569       1.42611189
H       -7.88879245       1.10000042       1.85659092
H       -7.14174133      -0.36708565       1.12204378
H       -7.53533193       1.04701115       0.11283568
C       -4.82541903       1.42751544       2.17638765
H       -3.92430064       1.58176139       2.61949005
O       -5.07547060       0.93452229       3.67874436
H       -5.41759464       0.01491734       3.57012274
9
Properties=species:S:1:pos:R:3 energy=-723.5241651019398 pbc="F F F"
C       -7.13565873       0.74974004       1.10327740
C       -5.83806062       1.24533549       1.41870594
H       -7.89128385       1.11769012       1.85299658
H       -7.14312866      -0.36785825       1.14295293
H       -7.53623744       1.03219570       0.10478692
C       -4.82316974       1.44129854       2.15153016
H       -3.93802672       1.57216983       2.65339530
O       -5.07109966       0.92973610       3.68240168
H       -5.39938858       0.00605544       3.55525608
9
Properties=species:S:1:pos:R:3 energy=-723.3187189091383 pbc="F F F"
C       -7.13910854       0.75082999       1.10347773
C       -5.84073827       1.25117085       1.41080353
H       -7.89310232       1.13421432       1.84969041
H       -7.14434748      -0.36834392       1.16278465
H       -7.53752515       1.01796765       0.09757592
C       -4.82073906       1.45532094       2.12531183
H       -3.95238980       1.56201086       2.68824751
O       -5.06619424       0.92465950       3.68681199
H       -5.38190913      -0.00146719       3.54059943
9
Properties=species:S:1:pos:R:3 energy=-723.119990646115 pbc="F F F"
C       -7.14244824       0.75171738       1.10358136
C       -5.84331752       1.25677414       1.40241767
H       -7.89424745       1.14955857       1.84668901
H       -7.14538778      -0.36855604       1.18151254
H       -7.53919202       1.00435416       0.09120209
C       -4.81813249       1.46956111       2.09775134
H       -3.96735336       1.55132430       2.72398354
O       -5.06077268       0.91928267       3.69198114
H       -5.36520246      -0.00765328       3.52618430
9
Properties=species:S:1:pos:R:3 energy=-722.9324746038762 pbc="F F F"
C       -7.14566336       0.75241351       1.10359953
C       -5.84578701       1.26214983       1.39356456
H       -7.89474040       1.16374697       1.84399890
H       -7.14624270      -0.36851359       1.19914985
H       -7.54122453       0.99135517       0.08564433
C       -4.81536727       1.48399334       2.06889929
H       -3.98285280       1.54017400       2.76051806
O       -5.05488103       0.91359029       3.69789218
H       -5.34929490      -0.01254652       3.51203631
9
Properties=species:S:1:pos:R:3 energy=-722.7555016447 pbc="F F F"
C       -7.14873956       0.75293007       1.10354375
C       -5.84813502       1.26730295       1.38426054
H       -7.89460323       1.17680531       1.84162619
H       -7.14690555      -0.36823581       1.21571153
H       -7.54360868       0.97896943       0.08088060
C       -4.81246116       1.49859173       2.03880763
H       -3.99882231       1.52862489       2.79776477
O       -5.04856653       0.90756685       3.70452719
H       -5.33421195      -0.01619243       3.49818080
9
Properties=species:S:1:pos:R:3 energy=-722.5836049881221 pbc="F F F"
C       -7.15166249       0.75327875       1.10342555
C       -5.85034982       1.27223852       1.37452195
H       -7.89385805       1.18875938       1.83957697
H       -7.14736964      -0.36774191       1.23121255
H       -7.54633052       0.96719566       0.07688891
C       -4.80943191       1.51333042       2.00752835
H       -4.01519609       1.51674186       2.83563737
O       -5.04187642       0.90119681       3.71186822
H       -5.31997907      -0.01863648       3.48464313
9
Properties=species:S:1:pos:R:3 energy=-722.4092939250835 pbc="F F F"
C       -7.15441777       0.75347123       1.10325646
C       -5.85241970       1.27696156       1.36436512
H       -7.89252693       1.19963494       1.83785733
H       -7.14762825      -0.36705112       1.24566787
H       -7.54937606       0.95603261       0.07364725
C       -4.80629729       1.52818350       1.97511340
H       -4.03190832       1.50458983       2.87404958
O       -5.03485794       0.89446464       3.71989733
H       -5.30662174      -0.01992419       3.47144866
9
Properties=species:S:1:pos:R:3 energy=-722.2264575478129 pbc="F F F"
C       -7.15699108       0.75351918       1.10304800
C       -5.85433291       1.28147708       1.35380637
H       -7.89063196       1.20945779       1.83647338
H       -7.14767470      -0.36618267       1.25909247
H       -7.55273132       0.94547902       0.07113360
C       -4.80307505       1.54312510       1.94161475
H       -4.04889320       1.49223371       2.91291511
O       -5.02755833       0.88735481       3.72859659
H       -5.29416544      -0.02010104       3.45862273
9
Properties=species:S:1:pos:R:3 energy=-722.0331987648191 pbc="F F F"
C       -7.15936805       0.75343431       1.10281170
C       -5.85607775       1.28579011       1.34286206
H       -7.88819523       1.21825371       1.83543122
H       -7.14750228      -0.36515579       1.27150129
H       -7.55638233       0.93553363       0.06932594
C       -4.79978295       1.55812933       1.90708438
H       -4.06608492       1.47973842       2.95214765
O       -5.02002485       0.87985180       3.73794807
H       -5.28263564      -0.01921252       3.44619069
9
Properties=species:S:1:pos:R:3 energy=-721.8338336242512 pbc="F F F"
C       -7.16153432       0.75322828       1.10255908
C       -5.85764249       1.28990567       1.33154850
H       -7.88523883       1.22604849       1.83473694
H       -7.14710428      -0.36398970       1.28290930
H       -7.56031511       0.92619518       0.06820228
C       -4.79643874       1.57317031       1.87157426
H       -4.08341768       1.46716886       2.99166091
O       -5.01230472       0.87194006       3.74793383
H       -5.27205782      -0.01730415       3.43417791
9
Properties=species:S:1:pos:R:3 energy=-721.6402714539759 pbc="F F F"
C       -7.16347556       0.75291279       1.10230167
C       -5.85901539       1.29382877       1.31988205
H       -7.88178483       1.23286790       1.83439663
H       -7.14647403      -0.36270362       1.29333148
H       -7.56451569       0.91746241       0.06774059
C       -4.79306019       1.58822215       1.83513634
H       -4.10082566       1.45458994       3.03136860
O       -5.00444520       0.86360407       3.75853592
H       -5.26245745      -0.01442140       3.42260972
9
Properties=species:S:1:pos:R:3 energy=-721.4726995306219 pbc="F F F"
C       -7.16517739       0.75249951       1.10205099
C       -5.86018474       1.29756443       1.30787902
H       -7.87785533       1.23873773       1.83441640
H       -7.14560480      -0.36131679       1.30278277
H       -7.56897009       0.90933406       0.06791887
C       -4.78966504       1.60325897       1.79782261
H       -4.11824306       1.44206657       3.07118443
O       -4.99649352       0.85482830       3.76973642
H       -5.25386002      -0.01060979       3.41151149
9
Properties=species:S:1:pos:R:3 energy=-721.3576545454765 pbc="F F F"
C       -7.16662548       0.75200014       1.10181856
C       -5.86113882       1.30111769       1.29555576
H       -7.87347241       1.24368376       1.83480235
H       -7.14448990      -0.35984843       1.31127815
H       -7.57366432       0.90180887       0.06871510
C       -4.78627106       1.61825488       1.75968503
H       -4.13560406       1.42966367       3.11102209
O       -4.98849694       0.84559721       3.78151739
H       -5.24629100      -0.00591479       3.40090857
9
Properties=species:S:1:pos:R:3 energy=-721.3237098036271 pbc="F F F"
C       -7.16780547       0.75142635       1.10161591
C       -5.86186589       1.30449354       1.28292860
H       -7.86865816       1.24773177       1.83556056
H       -7.14312264      -0.35831776       1.31883257
H       -7.57858443       0.89488558       0.07010728
C       -4.78289600       1.63318399       1.72077557
H       -4.15284286       1.41744615       3.15079531
O       -4.98050268       0.83589529       3.79386089
H       -5.23977586      -0.00038191       3.39082630
9
Properties=species:S:1:pos:R:3 energy=-721.3866847708782 pbc="F F F"
C       -7.16870300       0.75078983       1.10145457
C       -5.86235424       1.30769703       1.27001388
H       -7.86343466       1.25090756       1.83669715
H       -7.14149632      -0.35674402       1.32546101
H       -7.58371642       0.88856293       0.07207338
C       -4.77955762       1.64802043       1.68114620
H       -4.16989366       1.40547891       3.19041777
O       -4.97255800       0.82570699       3.80674899
H       -5.23434009       0.00594335       3.38129004
9
Properties=species:S:1:pos:R:3 energy=-721.6567339171776 pbc="F F F"
C       -7.16930373       0.75010226       1.10134606
C       -5.86259213       1.31073315       1.25682793
H       -7.85782400       1.25323689       1.83821820
H       -7.13960422      -0.35514642       1.33117842
H       -7.58904632       0.88283966       0.07459141
C       -4.77627368       1.66273831       1.64084889
H       -4.18669064       1.39382687       3.22980320
O       -4.96471013       0.81501678       3.82016375
H       -5.23000915       0.01301551       3.37232515
9
Properties=species:S:1:pos:R:3 energy=-721.823991878826 pbc="F F F"
C       -7.16959329       0.74937532       1.10130191
C       -5.86256785       1.31360694       1.24338708
H       -7.85184826       1.25474556       1.84012981
H       -7.13743966      -0.35354420       1.33599977
H       -7.59456015       0.87771451       0.07763935
C       -4.77306193       1.67731173       1.59993560
H       -4.20316799       1.38255494       3.26886529
O       -4.95700633       0.80380914       3.83408723
H       -5.22680853       0.02078905       3.36395697
9
Properties=species:S:1:pos:R:3 energy=-721.9672681796338 pbc="F F F"
C       -7.16955734       0.74862071       1.10133364
C       -5.86226968       1.31632341       1.22970767
H       -7.84552954       1.25545935       1.84243809
H       -7.13499593      -0.35195658       1.33994002
H       -7.60024395       0.87318621       0.08119518
C       -4.76994013       1.69171483       1.55845831
H       -4.21925991       1.37172803       3.30751775
O       -4.94949382       0.79206853       3.84850149
H       -5.22476370       0.02921850       3.35621086
9
Properties=species:S:1:pos:R:3 energy=-722.0854757225443 pbc="F F F"
C       -7.16918153       0.74785010       1.10145277
C       -5.86168587       1.31888759       1.21580603
H       -7.83888991       1.25540404       1.84514913
H       -7.13226634      -0.35040279       1.34301413
H       -7.60608372       0.86925352       0.08523690
C       -4.76692604       1.70592171       1.51646898
H       -4.23490059       1.36141105       3.34567429
O       -4.94221986       0.77977943       3.86338861
H       -5.22390014       0.03825835       3.34911216
9
Properties=species:S:1:pos:R:3 energy=-722.1799007716029 pbc="F F F"
C       -7.16845150       0.74707518       1.10167083
C       -5.86080472       1.32130448       1.20169851
H       -7.83195146       1.25460541       1.84826902
H       -7.12924418      -0.34890205       1.34523708
H       -7.61206550       0.86591517       0.08974249
C       -4.76403741       1.71990648       1.47401959
H       -4.25002422       1.35166891       3.38324861
O       -4.93523169       0.76692630       3.87873064
H       -5.22424332       0.04786311       3.34268624
9
Properties=species:S:1:pos:R:3 energy=-722.2530438650508 pbc="F F F"
C       -7.16735290       0.74630763       1.10199934
C       -5.85961450       1.32357912       1.18740143
H       -7.82473628       1.25308925       1.85180386
H       -7.12592276      -0.34747358       1.34662381
H       -7.61817531       0.86316990       0.09468995
C       -4.76129200       1.73364327       1.43116209
H       -4.26456499       1.34256652       3.42015442
O       -4.92857655       0.75349362       3.89450965
H       -5.22581873       0.05798728       3.33695845
9
Properties=species:S:1:pos:R:3 energy=-722.3080158132997 pbc="F F F"
C       -7.16587137       0.74555913       1.10244983
C       -5.85810347       1.32571652       1.17293112
H       -7.81726645       1.25088133       1.85575976
H       -7.12229537      -0.34613663       1.34718930
H       -7.62439917       0.86101645       0.10005726
C       -4.75870757       1.74710618       1.38794848
H       -4.27845709       1.33416880       3.45630543
O       -4.92230168       0.73946584       3.91070770
H       -5.22865183       0.06858537       3.33195413
9
Properties=species:S:1:pos:R:3 energy=-722.3481552691669 pbc="F F F"
C       -7.16399256       0.74484137       1.10303383
C       -5.85625993       1.32772170       1.15830393
H       -7.80956407       1.24800745       1.86014281
H       -7.11835531      -0.34491040       1.34694851
H       -7.63072310       0.85945356       0.10582240
C       -4.75630188       1.76026934       1.34443070
H       -4.29163472       1.32654065       3.49161533
O       -4.91645432       0.72482745       3.92730685
H       -5.23276811       0.07961188       3.32769864
9
Properties=species:S:1:pos:R:3 energy=-722.3767623091625 pbc="F F F"
C       -7.16170213       0.74416604       1.10376286
C       -5.85407214       1.32959969       1.14353619
H       -7.80165120       1.24449339       1.86495910
H       -7.11409589      -0.34381413       1.34591640
H       -7.63713313       0.85847997       0.11196338
C       -4.75409267       1.77310686       1.30066073
H       -4.30403207       1.31974698       3.52599784
O       -4.91108172       0.70956290       3.94428917
H       -5.23819304       0.09102131       3.32421733
9
Properties=species:S:1:pos:R:3 energy=-722.3969007010087 pbc="F F F"
C       -7.15898571       0.74354481       1.10464844
C       -5.85152838       1.33135549       1.12864422
H       -7.79354995       1.24036493       1.87021474
H       -7.10951041      -0.34286705       1.34410794
H       -7.64361527       0.85809442       0.11845817
C       -4.75209772       1.78559285       1.25669054
H       -4.31558333       1.31385271       3.55936667