 Entering Gaussian System, Link 0=g09
 Initial command:
 /apps/applications/gaussian/G09.D01/2/default/g09/l1.exe "/nobackup/chmrsh/Scratch/Gau-156329.inp" -scrdir="/nobackup/chmrsh/Scratch/"
 Entering Link 1 = /apps/applications/gaussian/G09.D01/2/default/g09/l1.exe PID=    156330.
  
 Copyright (c) 1988,1990,1992,1993,1995,1998,2003,2009,2013,
            Gaussian, Inc.  All Rights Reserved.
  
 This is part of the Gaussian(R) 09 program.  It is based on
 the Gaussian(R) 03 system (copyright 2003, Gaussian, Inc.),
 the Gaussian(R) 98 system (copyright 1998, Gaussian, Inc.),
 the Gaussian(R) 94 system (copyright 1995, Gaussian, Inc.),
 the Gaussian 92(TM) system (copyright 1992, Gaussian, Inc.),
 the Gaussian 90(TM) system (copyright 1990, Gaussian, Inc.),
 the Gaussian 88(TM) system (copyright 1988, Gaussian, Inc.),
 the Gaussian 86(TM) system (copyright 1986, Carnegie Mellon
 University), and the Gaussian 82(TM) system (copyright 1983,
 Carnegie Mellon University). Gaussian is a federally registered
 trademark of Gaussian, Inc.
  
 This software contains proprietary and confidential information,
 including trade secrets, belonging to Gaussian, Inc.
  
 This software is provided under written license and may be
 used, copied, transmitted, or stored only in accord with that
 written license.
  
 The following legend is applicable only to US Government
 contracts under FAR:
  
                    RESTRICTED RIGHTS LEGEND
  
 Use, reproduction and disclosure by the US Government is
 subject to restrictions as set forth in subparagraphs (a)
 and (c) of the Commercial Computer Software - Restricted
 Rights clause in FAR 52.227-19.
  
 Gaussian, Inc.
 340 Quinnipiac St., Bldg. 40, Wallingford CT 06492
  
  
 ---------------------------------------------------------------
 Warning -- This program may not be used in any manner that
 competes with the business of Gaussian, Inc. or will provide
 assistance to any competitor of Gaussian, Inc.  The licensee
 of this program is prohibited from giving any competitor of
 Gaussian, Inc. access to this program.  By using this program,
 the user acknowledges that Gaussian, Inc. is engaged in the
 business of creating and licensing software in the field of
 computational chemistry and represents and warrants to the
 licensee that it is not a competitor of Gaussian, Inc. and that
 it will not use this program in any manner prohibited above.
 ---------------------------------------------------------------
  

 Cite this work as:
 Gaussian 09, Revision D.01,
 M. J. Frisch, G. W. Trucks, H. B. Schlegel, G. E. Scuseria, 
 M. A. Robb, J. R. Cheeseman, G. Scalmani, V. Barone, B. Mennucci, 
 G. A. Petersson, H. Nakatsuji, M. Caricato, X. Li, H. P. Hratchian, 
 A. F. Izmaylov, J. Bloino, G. Zheng, J. L. Sonnenberg, M. Hada, 
 M. Ehara, K. Toyota, R. Fukuda, J. Hasegawa, M. Ishida, T. Nakajima, 
 Y. Honda, O. Kitao, H. Nakai, T. Vreven, J. A. Montgomery, Jr., 
 J. E. Peralta, F. Ogliaro, M. Bearpark, J. J. Heyd, E. Brothers, 
 K. N. Kudin, V. N. Staroverov, T. Keith, R. Kobayashi, J. Normand, 
 K. Raghavachari, A. Rendell, J. C. Burant, S. S. Iyengar, J. Tomasi, 
 M. Cossi, N. Rega, J. M. Millam, M. Klene, J. E. Knox, J. B. Cross, 
 V. Bakken, C. Adamo, J. Jaramillo, R. Gomperts, R. E. Stratmann, 
 O. Yazyev, A. J. Austin, R. Cammi, C. Pomelli, J. W. Ochterski, 
 R. L. Martin, K. Morokuma, V. G. Zakrzewski, G. A. Voth, 
 P. Salvador, J. J. Dannenberg, S. Dapprich, A. D. Daniels, 
 O. Farkas, J. B. Foresman, J. V. Ortiz, J. Cioslowski, 
 and D. J. Fox, Gaussian, Inc., Wallingford CT, 2013.
 
 ******************************************
 Gaussian 09:  ES64L-G09RevD.01 24-Apr-2013
                 6-Feb-2021 
 ******************************************
 %nprocshared=1
 Will use up to    1 processors via shared memory.
 ----------------------------------------------------------------------
 #P upm6 scf=qc opt(calcall, ts, noeigentest, cartesian,maxcycle=100) N
 oSymm, guess=mix
 ----------------------------------------------------------------------
 1/5=1,6=100,10=4,11=1,14=-1,18=10,26=1,38=1/1,3;
 2/12=2,15=1,17=6,18=5,29=2,40=1/2;
 3/5=2,16=1,25=1,41=3900000,71=2,116=2,140=1/1,2,3;
 4/13=-1,35=1/1;
 5/5=2,8=3,35=1,38=5/8;
 8/6=4,10=90,11=11/1;
 11/6=1,8=1,9=11,15=111,16=1,31=1/1,2,10;
 10/6=1,31=1/2;
 6/7=2,8=2,9=2,10=2,18=1,28=1/1;
 7/7=1,10=1,25=1,30=1/1,2,3,16;
 1/5=1,6=100,10=4,11=1,14=-1,18=10,26=1/3(3);
 2/15=1,29=1/2;
 7/7=1,8=1,9=1,25=1,30=1,44=-1/16;
 99/12=1/99;
 2/15=1,29=1/2;
 3/5=2,16=1,25=1,41=3900000,71=2,116=2,135=20,140=1/1,2,3;
 4/5=5,16=3,35=1/1;
 5/5=2,8=3,35=1,38=5/8;
 8/6=4,10=90,11=11/1;
 11/6=1,8=1,9=11,15=111,16=1,31=1/1,2,10;
 10/6=1,31=1/2;
 7/7=1,10=1,25=1,30=1/1,2,3,16;
 1/5=1,6=100,10=4,11=1,14=-1,18=10,26=1/3(-8);
 2/15=1,29=1/2;
 6/7=2,8=2,9=2,10=2,18=1,19=2,28=1/1;
 7/7=1,8=1,9=1,25=1,30=1,44=-1/16;
 99/12=1/99;
 Leave Link    1 at Sat Feb  6 23:47:54 2021, MaxMem=           0 cpu:         0.1
 (Enter /apps/applications/gaussian/G09.D01/2/default/g09/l101.exe)
 ------------------------------
 Gaussian input prepared by ASE
 ------------------------------
 Symbolic Z-matrix:
 Charge =  0 Multiplicity = 2
 O                    -1.3669    2.00581  -0.84033 
 C                    -1.42167   2.16062   0.34904 
 C                    -0.6599    1.54269   1.48459 
 C                    -0.77457   0.05038   1.63444 
 C                     0.43357  -0.69985   1.06029 
 C                     0.58462  -0.52916  -0.45324 
 H                     0.54928   0.53893  -0.7749 
 C                     1.90266  -1.15308  -0.95726 
 O                     2.9325   -0.92623  -0.36286 
 C                     1.81136  -1.99076  -2.18411 
 H                    -1.45892   0.07454  -2.05484 
 H                     0.34889   1.95883   1.62974 
 H                    -1.29375   2.1322    2.49376 
 H                    -0.88113  -0.21149   2.7109 
 H                    -1.70323  -0.32787   1.14849 
 H                     1.37895  -0.37579   1.55028 
 H                     0.33074  -1.78113   1.298 
 H                     2.7965   -2.33403  -2.52625 
 H                     1.17423  -2.87483  -2.01527 
 H                     1.32364  -1.44482  -3.01062 
 O                    -0.56751  -1.22499  -1.00752 
 O                    -0.82393  -0.68142  -2.28501 
 O                    -2.2929    2.97862   2.25068 
 O                    -2.32252   3.11282   0.86198 
 
 NAtoms=     24 NQM=       24 NQMF=       0 NMMI=      0 NMMIF=      0
                NMic=       0 NMicF=      0.
                    Isotopes and Nuclear Properties:
 (Nuclear quadrupole moments (NQMom) in fm**2, nuclear magnetic moments (NMagM)
  in nuclear magnetons)

  Atom         1           2           3           4           5           6           7           8           9          10
 IAtWgt=          16          12          12          12          12          12           1          12          16          12
 AtmWgt=  15.9949146  12.0000000  12.0000000  12.0000000  12.0000000  12.0000000   1.0078250  12.0000000  15.9949146  12.0000000
 NucSpn=           0           0           0           0           0           0           1           0           0           0
 AtZEff=   0.0000000   0.0000000   0.0000000   0.0000000   0.0000000   0.0000000   0.0000000   0.0000000   0.0000000   0.0000000
 NQMom=    0.0000000   0.0000000   0.0000000   0.0000000   0.0000000   0.0000000   0.0000000   0.0000000   0.0000000   0.0000000
 NMagM=    0.0000000   0.0000000   0.0000000   0.0000000   0.0000000   0.0000000   2.7928460   0.0000000   0.0000000   0.0000000
 AtZNuc=   8.0000000   6.0000000   6.0000000   6.0000000   6.0000000   6.0000000   1.0000000   6.0000000   8.0000000   6.0000000

  Atom        11          12          13          14          15          16          17          18          19          20
 IAtWgt=           1           1           1           1           1           1           1           1           1           1
 AtmWgt=   1.0078250   1.0078250   1.0078250   1.0078250   1.0078250   1.0078250   1.0078250   1.0078250   1.0078250   1.0078250
 NucSpn=           1           1           1           1           1           1           1           1           1           1
 AtZEff=   0.0000000   0.0000000   0.0000000   0.0000000   0.0000000   0.0000000   0.0000000   0.0000000   0.0000000   0.0000000
 NQMom=    0.0000000   0.0000000   0.0000000   0.0000000   0.0000000   0.0000000   0.0000000   0.0000000   0.0000000   0.0000000
 NMagM=    2.7928460   2.7928460   2.7928460   2.7928460   2.7928460   2.7928460   2.7928460   2.7928460   2.7928460   2.7928460
 AtZNuc=   1.0000000   1.0000000   1.0000000   1.0000000   1.0000000   1.0000000   1.0000000   1.0000000   1.0000000   1.0000000

  Atom        21          22          23          24
 IAtWgt=          16          16          16          16
 AtmWgt=  15.9949146  15.9949146  15.9949146  15.9949146
 NucSpn=           0           0           0           0
 AtZEff=   0.0000000   0.0000000   0.0000000   0.0000000
 NQMom=    0.0000000   0.0000000   0.0000000   0.0000000
 NMagM=    0.0000000   0.0000000   0.0000000   0.0000000
 AtZNuc=   8.0000000   8.0000000   8.0000000   8.0000000
 Leave Link  101 at Sat Feb  6 23:47:54 2021, MaxMem=    33554432 cpu:         0.1
 (Enter /apps/applications/gaussian/G09.D01/2/default/g09/l103.exe)

 GradGradGradGradGradGradGradGradGradGradGradGradGradGradGradGradGradGrad
 Berny optimization.
 Initialization pass.
 No Z-matrix variables, so optimization will use Cartesian coordinates.
 Trust Radius=3.00D-01 FncErr=1.00D-07 GrdErr=1.00D-07
 Number of steps in this run=    100 maximum allowed number of steps=    144.
 Search for a saddle point of order  1.
 GradGradGradGradGradGradGradGradGradGradGradGradGradGradGradGradGradGrad

 Leave Link  103 at Sat Feb  6 23:47:54 2021, MaxMem=    33554432 cpu:         0.0
 (Enter /apps/applications/gaussian/G09.D01/2/default/g09/l202.exe)
 ---------------------------------------------------------------------------------------------------
                            Z-MATRIX (ANGSTROMS AND DEGREES)
   CD    Cent   Atom    N1       Length/X        N2       Alpha/Y        N3        Beta/Z          J
 ---------------------------------------------------------------------------------------------------
      1      1  O        0  -1.366900          2.005814         -0.840334
      2      2  C        0  -1.421674          2.160623          0.349037
      3      3  C        0  -0.659899          1.542687          1.484586
      4      4  C        0  -0.774569          0.050377          1.634439
      5      5  C        0   0.433569         -0.699850          1.060291
      6      6  C        0   0.584615         -0.529161         -0.453241
      7      7  H        0   0.549278          0.538934         -0.774895
      8      8  C        0   1.902659         -1.153083         -0.957255
      9      9  O        0   2.932499         -0.926229         -0.362859
     10     10  C        0   1.811362         -1.990762         -2.184107
     11     11  H        0  -1.458918          0.074536         -2.054836
     12     12  H        0   0.348889          1.958832          1.629744
     13     13  H        0  -1.293751          2.132201          2.493763
     14     14  H        0  -0.881131         -0.211492          2.710904
     15     15  H        0  -1.703232         -0.327868          1.148486
     16     16  H        0   1.378954         -0.375786          1.550284
     17     17  H        0   0.330738         -1.781131          1.298004
     18     18  H        0   2.796495         -2.334030         -2.526249
     19     19  H        0   1.174234         -2.874827         -2.015272
     20     20  H        0   1.323638         -1.444820         -3.010624
     21     21  O        0  -0.567506         -1.224986         -1.007517
     22     22  O        0  -0.823927         -0.681416         -2.285010
     23     23  O        0  -2.292902          2.978618          2.250683
     24     24  O        0  -2.322521          3.112818          0.861977
 ---------------------------------------------------------------------------------------------------
                         Z-Matrix orientation:                         
 ---------------------------------------------------------------------
 Center     Atomic      Atomic             Coordinates (Angstroms)
 Number     Number       Type             X           Y           Z
 ---------------------------------------------------------------------
      1          8           0       -1.366900    2.005814   -0.840334
      2          6           0       -1.421674    2.160623    0.349037
      3          6           0       -0.659899    1.542687    1.484586
      4          6           0       -0.774569    0.050377    1.634439
      5          6           0        0.433569   -0.699850    1.060291
      6          6           0        0.584615   -0.529161   -0.453241
      7          1           0        0.549278    0.538934   -0.774895
      8          6           0        1.902659   -1.153083   -0.957255
      9          8           0        2.932499   -0.926229   -0.362859
     10          6           0        1.811362   -1.990762   -2.184107
     11          1           0       -1.458918    0.074536   -2.054836
     12          1           0        0.348889    1.958832    1.629744
     13          1           0       -1.293751    2.132201    2.493763
     14          1           0       -0.881131   -0.211492    2.710904
     15          1           0       -1.703232   -0.327868    1.148486
     16          1           0        1.378954   -0.375786    1.550284
     17          1           0        0.330738   -1.781131    1.298004
     18          1           0        2.796495   -2.334030   -2.526249
     19          1           0        1.174234   -2.874827   -2.015272
     20          1           0        1.323638   -1.444820   -3.010624
     21          8           0       -0.567506   -1.224986   -1.007517
     22          8           0       -0.823927   -0.681416   -2.285010
     23          8           0       -2.292902    2.978618    2.250683
     24          8           0       -2.322521    3.112818    0.861977
 ---------------------------------------------------------------------
                    Distance matrix (angstroms):
                    1          2          3          4          5
     1  O    0.000000
     2  C    1.200654   0.000000
     3  C    2.473781   1.500539   0.000000
     4  C    3.209220   2.554240   1.504192   0.000000
     5  C    3.764928   3.482831   2.530745   1.533651   0.000000
     6  C    3.222476   3.450186   3.097829   2.557666   1.530598
     7  H    2.414075   2.788862   2.752251   2.792159   2.217179
     8  C    4.547782   4.872190   4.449322   3.915705   2.536560
     9  O    5.225867   5.384633   4.734334   4.322651   2.884658
    10  C    5.280123   5.839806   5.661422   5.043271   3.753783
    11  H    2.283269   3.183041   3.914257   3.752288   3.726285
    12  H    3.007894   2.194498   1.100864   2.214584   2.720301
    13  H    3.337293   2.148726   1.329561   2.311272   3.613722
    14  H    4.214702   3.390801   2.151730   1.112972   2.165976
    15  H    3.084574   2.628874   2.168060   1.114287   2.170730
    16  H    4.350493   3.964831   2.800317   2.196897   1.113042
    17  H    4.668556   4.416889   3.473318   2.165482   1.111868
    18  H    6.245832   6.801627   6.562194   5.979065   4.595349
    19  H    5.626588   6.138766   5.926844   5.067055   3.839036
    20  H    4.884263   5.641213   5.750350   5.311751   4.233149
    21  O    3.332424   3.745956   3.725470   2.940979   2.356639
    22  O    3.098889   3.920802   4.379885   3.987485   3.573888
    23  O    3.370195   2.245977   2.305537   3.355546   4.730941
    24  O    2.244222   1.407589   2.370077   3.517300   4.708694
                    6          7          8          9         10
     6  C    0.000000
     7  H    1.116036   0.000000
     8  C    1.542903   2.174354   0.000000
     9  O    2.382938   2.827759   1.210512   0.000000
    10  C    2.576254   3.158812   1.488357   2.388959   0.000000
    11  H    2.665630   2.426266   3.743252   4.811326   3.870000
    12  H    3.253383   2.799742   4.334833   4.355351   5.681864
    13  H    4.392714   4.076687   5.737565   5.947728   6.965847
    14  H    3.501591   3.841875   4.700156   4.950014   5.863144
    15  H    2.800052   3.086186   4.256474   4.912454   5.120914
    16  H    2.160697   2.632780   2.676978   2.525194   4.091552
    17  H    2.167658   3.118873   2.819853   3.202887   3.789629
    18  H    3.528077   4.046127   2.157619   2.584697   1.097898
    19  H    2.879191   3.685494   2.148117   3.101451   1.102728
    20  H    2.815101   3.087620   2.153300   3.141342   1.104109
    21  O    1.455602   2.100651   2.471722   3.571397   2.762207
    22  O    2.315718   2.378107   3.069149   4.226740   2.944370
    23  O    5.281650   4.814994   6.705561   7.027322   7.823496
    24  O    4.842029   4.189446   6.273728   6.740130   7.239761
                   11         12         13         14         15
    11  H    0.000000
    12  H    4.516068   0.000000
    13  H    4.995099   1.864095   0.000000
    14  H    4.809150   2.718853   2.389624   0.000000
    15  H    3.237729   3.109953   2.833617   1.769334   0.000000
    16  H    4.610119   2.552996   3.784640   2.545980   3.108634
    17  H    4.229409   3.754691   4.402610   2.434888   2.504269
    18  H    4.912429   6.456912   7.866248   6.742245   6.146211
    19  H    3.953960   6.109959   7.175840   5.801260   4.977567
    20  H    3.311282   5.836780   7.067113   6.254437   5.263812
    21  O    1.892155   4.234575   4.904804   3.866806   2.596737
    22  O    1.013734   4.865358   5.565415   5.018292   3.561891
    23  O    5.259916   2.899067   1.331845   3.518764   3.534883
    24  O    4.299391   3.009582   2.163955   4.067822   3.507695
                   16         17         18         19         20
    16  H    0.000000
    17  H    1.771270   0.000000
    18  H    4.739437   4.583728   0.000000
    19  H    4.358934   3.589631   1.784738   0.000000
    20  H    4.684845   4.434324   1.787350   1.748704   0.000000
    21  O    3.324484   2.536053   3.853963   2.602154   2.763547
    22  O    4.433461   3.921813   3.987077   2.979338   2.391932
    23  O    5.022461   5.517816   8.771845   8.030082   7.767079
    24  O    5.132742   5.583963   8.206860   7.507180   7.004540
                   21         22         23         24
    21  O    0.000000
    22  O    1.411810   0.000000
    23  O    5.591346   6.010511   0.000000
    24  O    5.039011   5.152235   1.395490   0.000000
 Symmetry turned off by external request.
 Stoichiometry    C7H11O6(2)
 Framework group  C1[X(C7H11O6)]
 Deg. of freedom    66
 Full point group                 C1      NOp   1
 Rotational constants (GHZ):      1.4969134      0.4200686      0.3716139
 Leave Link  202 at Sat Feb  6 23:47:54 2021, MaxMem=    33554432 cpu:         0.0
 (Enter /apps/applications/gaussian/G09.D01/2/default/g09/l301.exe)
 Standard basis: VSTO-6G (5D, 7F)
 Ernie: Thresh=  0.10000D-02 Tol=  0.10000D-05 Strict=F.
  NNHCO=     0 NNPyr=     0 NCTC=     0               EPep=         0.000000000
    EC=       415.533717973  ECS=         4.879937835   EG=         0.351616655
   EHC=         0.001553976  EAt=       -97.491951148  AtH=         3.389121767
 EPDDG=         0.000000000  ECC=       420.766826438 EAtT=       100.881072916
    63 basis functions,   378 primitive gaussians,    63 cartesian basis functions
    38 alpha electrons       37 beta electrons
       nuclear repulsion energy       521.6478993537 Hartrees.
 IExCor=    0 DFT=F Ex=HF Corr=None ExCW=0 ScaHFX=  1.000000
 ScaDFX=  1.000000  1.000000  1.000000  1.000000 ScalE2=  1.000000  1.000000
 IRadAn=      0 IRanWt=     -1 IRanGd=            0 ICorTp=0 IEmpDi=  4
 Integral buffers will be    131072 words long.
 Regular integral format.
 Two-electron integral symmetry is turned off.
 Leave Link  301 at Sat Feb  6 23:47:54 2021, MaxMem=    33554432 cpu:         0.0
 (Enter /apps/applications/gaussian/G09.D01/2/default/g09/l302.exe)
 Do NDO integrals.
 NPDir=0 NMtPBC=     1 NCelOv=     1 NCel=       1 NClECP=     1 NCelD=      1
         NCelK=      1 NCelE2=     1 NClLst=     1 CellRange=     0.0.
 One-electron integrals computed using PRISM.
 NBasis=    63 RedAO= F EigKep=  0.00D+00  NBF=    63
 NBsUse=    63 1.00D-04 EigRej=  0.00D+00 NBFU=    63
 Leave Link  302 at Sat Feb  6 23:47:54 2021, MaxMem=    33554432 cpu:         0.0
 (Enter /apps/applications/gaussian/G09.D01/2/default/g09/l303.exe)
 DipDrv:  MaxL=1.
 Leave Link  303 at Sat Feb  6 23:47:54 2021, MaxMem=    33554432 cpu:         0.0
 (Enter /apps/applications/gaussian/G09.D01/2/default/g09/l401.exe)
 Simple Huckel Guess.
 JPrj=0 DoOrth=F DoCkMO=T.
 Mixing orbitals, IMix= 1 IMixAn=  0 NRI=1 NE=   38 Coef=  7.07106781D-01  7.07106781D-01
 Mixing orbitals, IMix= 1 IMixAn=  0 NRI=1 NE=   37 Coef= -7.07106781D-01  7.07106781D-01
 Initial guess <Sx>= 0.0000 <Sy>= 0.0000 <Sz>= 0.5000 <S**2>= 1.0000 S= 0.6180
 Leave Link  401 at Sat Feb  6 23:47:55 2021, MaxMem=    33554432 cpu:         0.0
 (Enter /apps/applications/gaussian/G09.D01/2/default/g09/l508.exe)
 Direct SCF.
 Tight linear equation convergence will be used.
 UPM6 wavefunction.
 Quadratic Convergence SCF Method.
 Line search only if initial step raises energy.
 Two-electron integral symmetry not used.
 ReadGW:  IGet=1 IStart=       59293 Next=       59293 LGW=           0.
 Keep J ints in memory in canonical form, NReq=922402.
 FoFCou: FMM=F IPFlag=           0 FMFlag=           0 FMFlg1=           0
         NFxFlg=           0 DoJE=F BraDBF=F KetDBF=F FulRan=T
         wScrn=  0.000000 ICntrl=     600 IOpCl=  2 I1Cent=           0 NGrid=           0
         NMat0=    1 NMatS0=    141 NMatT0=    0 NMatD0=    1 NMtDS0=    0 NMtDT0=    0
 Symmetry not used in FoFCou.
 Iteration   1 EE= 0.909654552812413                                    Grad=6.280D-01 Max rot=    5.9991 deg.
 Gradient too large for Newton-Raphson -- use scaled steepest descent instead.
 Alpha Gap=     0.095 HL deriv= 1.03D+00
  Beta Gap=     0.103 HL deriv= 9.68D-02
     ILin= 1 X=0.000D+00 Y= 9.096545528124D-01 DE= 0.00D+00 F= -1.20D+00
     ILin= 2 X=3.000D-01 Y= 5.798030583873D-01 DE=-3.30D-01 F= -9.79D-01
     ILin= 3 X=4.000D-01 Y= 4.866096860229D-01 DE=-4.23D-01 F= -8.84D-01
     ILin= 4 X=6.000D-01 Y= 3.303366585147D-01 DE=-5.79D-01 F= -6.76D-01
     ILin= 5 X=8.000D-01 Y= 2.165641209136D-01 DE=-6.93D-01 F= -4.62D-01
     ILin= 6 X=1.200D+00 Y= 1.118658196605D-01 DE=-7.98D-01 F= -7.63D-02
     Note:  rotation exceeds Pi/2.
     ILin= 7 X=1.700D+00 Y= 1.657370404031D-01 DE=-7.44D-01 F=  2.69D-01
     An  expanding polynomial of degree  7 produced  1.2954
     Minimum is close to point  6 DX=  9.54D-02 DF= -3.61D-03 DXR=  7.36D-02 DFR=  4.52D-03 which will be used.
 Iteration   2 EE= 0.111865819660466     Delta-E=       -0.797788733152 Grad=2.491D-01 Max rot=    3.1893 deg.
 Gradient too large for Newton-Raphson -- use scaled steepest descent instead.
 Alpha Gap=     0.182 HL deriv= 3.06D-01
  Beta Gap=     0.132 HL deriv= 3.39D-01
     ILin= 1 X=0.000D+00 Y= 1.118658196605D-01 DE= 0.00D+00 F= -2.19D-01
     ILin= 2 X=6.000D-01 Y=-4.851582092897D-03 DE=-1.17D-01 F= -1.62D-01
     ILin= 3 X=9.000D-01 Y=-4.637493460007D-02 DE=-1.58D-01 F= -1.13D-01
     ILin= 4 X=1.200D+00 Y=-7.163922303300D-02 DE=-1.84D-01 F= -5.36D-02
     ILin= 5 X=1.800D+00 Y=-6.337312007406D-02 DE=-1.75D-01 F=  8.29D-02
     An  expanding polynomial of degree  5 produced  1.4438
 Iteration   3 EE=-0.781992704338563E-01 Delta-E=       -0.190065090094 Grad=1.132D-01 Max rot=    2.0419 deg.
 Gradient too large for Newton-Raphson -- use scaled steepest descent instead.
 Alpha Gap=     0.429 HL deriv= 1.90D-02
  Beta Gap=     0.228 HL deriv= 1.03D-01
     ILin= 1 X=0.000D+00 Y=-7.819927043386D-02 DE= 0.00D+00 F= -4.13D-02
     ILin= 2 X=1.400D+00 Y=-1.078712658182D-01 DE=-2.97D-02 F= -7.67D-05
     Reject lnstep minimum 1.401D+00 FVal=-1.078712927116D-01 Lims=  0.00D+00  1.40D+00
     ILin= 3 X=2.200D+00 Y=-9.776008440224D-02 DE=-1.96D-02 F=  2.55D-02
     An  expanding polynomial of degree  3 produced  1.3891
     Minimum is close to point  2 DX= -1.09D-02 DF= -1.83D-06 DXR=  7.86D-03 DFR=  6.18D-05 which will be used.
 Iteration   4 EE=-0.107871265818176     Delta-E=       -0.029671995384 Grad=5.208D-02 Max rot=    1.0013 deg.
 Gradient too large for Newton-Raphson -- use scaled steepest descent instead.
 Alpha Gap=     0.433 HL deriv= 1.65D-02
  Beta Gap=     0.275 HL deriv= 5.06D-02
     ILin= 1 X=0.000D+00 Y=-1.078712658182D-01 DE= 0.00D+00 F= -8.65D-03
     ILin= 2 X=1.400D+00 Y=-1.133567854328D-01 DE=-5.49D-03 F=  8.89D-04
     Accept linear search using points  1 and  2.
     An  expanding polynomial of degree  2 produced  1.3387
     Minimum is close to point  2 DX= -6.13D-02 DF= -1.92D-05 DXR=  4.58D-02 DFR=  3.51D-03 which will be used.
 Iteration   5 EE=-0.113356785432757     Delta-E=       -0.005485519615 Grad=2.752D-02 Max rot=    0.6189 deg.
 Gradient too large for Newton-Raphson -- use scaled steepest descent instead.
 Alpha Gap=     0.442 HL deriv= 9.45D-03
  Beta Gap=     0.279 HL deriv= 1.21D-02
     ILin= 1 X=0.000D+00 Y=-1.133567854328D-01 DE= 0.00D+00 F= -2.27D-03
     ILin= 2 X=1.400D+00 Y=-1.145710253015D-01 DE=-1.21D-03 F=  5.39D-04
     Accept linear search using points  1 and  2.
     An  expanding polynomial of degree  2 produced  1.2445
 Iteration   6 EE=-0.114630547643060     Delta-E=       -0.001273762210 Grad=1.314D-02 Max rot=    0.2687 deg.
 Gradient too large for Newton-Raphson -- use scaled steepest descent instead.
 Alpha Gap=     0.441 HL deriv= 3.39D-03
  Beta Gap=     0.284 HL deriv= 4.72D-03
     ILin= 1 X=0.000D+00 Y=-1.146305476431D-01 DE= 0.00D+00 F= -5.27D-04
     ILin= 2 X=1.300D+00 Y=-1.149680139471D-01 DE=-3.37D-04 F=  8.29D-06
     Accept linear search using points  1 and  2.
     An  expanding polynomial of degree  2 produced  1.2900
     Minimum is close to point  2 DX= -1.00D-02 DF= -3.19D-08 DXR=  7.78D-03 DFR=  9.47D-05 which will be used.
 Iteration   7 EE=-0.114968013947078     Delta-E=       -0.000337466304 Grad=7.320D-03 Max rot=    0.1386 deg.
 QCNR:  CnvC1=4.37D-09 CnvC2=4.37D-08
 LinEq1:  Iter=  0 NonCon=     1 RMS=2.71D-04 Max=3.00D-03 NDo=     1
 AX will form     1 AO Fock derivatives at one time.
 LinEq1:  Iter=  1 NonCon=     1 RMS=7.40D-05 Max=1.09D-03 NDo=     1
 LinEq1:  Iter=  2 NonCon=     1 RMS=1.60D-05 Max=3.37D-04 NDo=     1
 LinEq1:  Iter=  3 NonCon=     1 RMS=3.62D-06 Max=8.41D-05 NDo=     1
 LinEq1:  Iter=  4 NonCon=     1 RMS=1.09D-06 Max=1.85D-05 NDo=     1
 LinEq1:  Iter=  5 NonCon=     1 RMS=2.87D-07 Max=5.16D-06 NDo=     1
 LinEq1:  Iter=  6 NonCon=     1 RMS=5.75D-08 Max=6.73D-07 NDo=     1
 LinEq1:  Iter=  7 NonCon=     1 RMS=1.55D-08 Max=2.52D-07 NDo=     1
 LinEq1:  Iter=  8 NonCon=     1 RMS=3.29D-09 Max=4.50D-08 NDo=     1
 LinEq1:  Iter=  9 NonCon=     0 RMS=9.11D-10 Max=1.29D-08 NDo=     1
 Linear equations converged to 4.373D-09 4.373D-08 after     9 iterations.
 Angle between quadratic step and gradient=  54.20 degrees.
     ILin= 1 X=0.000D+00 Y=-1.149680139471D-01 DE= 0.00D+00 F= -4.36D-04
     ILin= 2 X=1.000D+00 Y=-1.151845664244D-01 DE=-2.17D-04 F=  4.05D-06
     Accept linear search using points  1 and  2.
     An  expanding polynomial of degree  2 produced  0.9909
     Minimum is close to point  2 DX= -9.11D-03 DF= -1.84D-08 DXR=  9.20D-03 DFR=  8.51D-05 which will be used.
 Iteration   8 EE=-0.115184566424432     Delta-E=       -0.000216552477 Grad=1.945D-04 Max rot=    0.0024 deg.
 QCNR:  CnvC1=1.94D-09 CnvC2=1.94D-08
 LinEq1:  Iter=  0 NonCon=     1 RMS=7.91D-06 Max=1.13D-04 NDo=     1
 LinEq1:  Iter=  1 NonCon=     1 RMS=2.02D-06 Max=2.29D-05 NDo=     1
 LinEq1:  Iter=  2 NonCon=     1 RMS=5.15D-07 Max=7.84D-06 NDo=     1
 LinEq1:  Iter=  3 NonCon=     1 RMS=1.37D-07 Max=2.25D-06 NDo=     1
 LinEq1:  Iter=  4 NonCon=     1 RMS=3.34D-08 Max=3.49D-07 NDo=     1
 LinEq1:  Iter=  5 NonCon=     1 RMS=6.88D-09 Max=8.56D-08 NDo=     1
 LinEq1:  Iter=  6 NonCon=     1 RMS=1.78D-09 Max=2.64D-08 NDo=     1
 LinEq1:  Iter=  7 NonCon=     0 RMS=4.35D-10 Max=8.71D-09 NDo=     1
 Linear equations converged to 1.945D-09 1.945D-08 after     7 iterations.
 Angle between quadratic step and gradient=  56.76 degrees.
     ILin= 1 X=0.000D+00 Y=-1.151845664244D-01 DE= 0.00D+00 F= -3.37D-07
     ILin= 2 X=1.000D+00 Y=-1.151847352830D-01 DE=-1.69D-07 F= -3.29D-10
     Reject lnstep minimum 1.001D+00 FVal=-1.151847352832D-01 Lims=  0.00D+00  1.00D+00
     ILin= 3 X=2.000D+00 Y=-1.151845670937D-01 DE=-6.69D-10 F=  3.37D-07
     An  expanding polynomial of degree  3 produced  1.0010
     Minimum is close to point  2 DX=  9.93D-04 DF= -1.66D-13 DXR=  9.92D-04 DFR=  9.84D-07 which will be used.
 Iteration   9 EE=-0.115184735283037     Delta-E=       -0.000000168859 Grad=9.245D-06 Max rot=    0.0001 deg.
 QCNR:  CnvC1=9.24D-11 CnvC2=9.24D-10
 LinEq1:  Iter=  0 NonCon=     1 RMS=3.70D-07 Max=7.42D-06 NDo=     1
 LinEq1:  Iter=  1 NonCon=     1 RMS=1.36D-07 Max=3.58D-06 NDo=     1
 LinEq1:  Iter=  2 NonCon=     1 RMS=3.58D-08 Max=5.17D-07 NDo=     1
 LinEq1:  Iter=  3 NonCon=     1 RMS=7.58D-09 Max=7.38D-08 NDo=     1
 LinEq1:  Iter=  4 NonCon=     1 RMS=1.79D-09 Max=2.56D-08 NDo=     1
 LinEq1:  Iter=  5 NonCon=     1 RMS=4.61D-10 Max=5.90D-09 NDo=     1
 LinEq1:  Iter=  6 NonCon=     1 RMS=1.29D-10 Max=1.90D-09 NDo=     1
 LinEq1:  Iter=  7 NonCon=     0 RMS=3.22D-11 Max=4.53D-10 NDo=     1
 Linear equations converged to 9.245D-11 9.245D-10 after     7 iterations.
 Angle between quadratic step and gradient=  65.94 degrees.
     ILin= 1 X=0.000D+00 Y=-1.151847352830D-01 DE= 0.00D+00 F= -1.33D-09
     ILin= 2 X=1.000D+00 Y=-1.151847359562D-01 DE=-6.73D-10
 Iteration  10 EE=-0.115184735956177     Delta-E=       -0.000000000673 Grad=8.747D-07 Max rot=    0.0000 deg.
 QCNR:  CnvC1=8.75D-12 CnvC2=8.75D-11
 LinEq1:  Iter=  0 NonCon=     1 RMS=3.68D-08 Max=5.17D-07 NDo=     1
 LinEq1:  Iter=  1 NonCon=     1 RMS=1.15D-08 Max=1.80D-07 NDo=     1
 LinEq1:  Iter=  2 NonCon=     1 RMS=3.20D-09 Max=4.34D-08 NDo=     1
 LinEq1:  Iter=  3 NonCon=     1 RMS=7.85D-10 Max=1.05D-08 NDo=     1
 LinEq1:  Iter=  4 NonCon=     1 RMS=1.90D-10 Max=2.67D-09 NDo=     1
 LinEq1:  Iter=  5 NonCon=     1 RMS=4.37D-11 Max=6.32D-10 NDo=     1
 LinEq1:  Iter=  6 NonCon=     1 RMS=1.16D-11 Max=2.68D-10 NDo=     1
 LinEq1:  Iter=  7 NonCon=     0 RMS=3.52D-12 Max=6.82D-11 NDo=     1
 Linear equations converged to 8.747D-12 8.747D-11 after     7 iterations.
 Angle between quadratic step and gradient=  60.92 degrees.
     ILin= 1 X=0.000D+00 Y=-1.151847359562D-01 DE= 0.00D+00 F= -1.33D-11
     ILin= 2 X=1.000D+00 Y=-1.151847359624D-01 DE=-6.25D-12
 Iteration  11 EE=-0.115184735962430     Delta-E=       -0.000000000006 Grad=1.046D-07 Max rot=    0.0000 deg.
 Rotation gradient small -- convergence achieved.
 SCF Done:  E(UPM6) = -0.115184735962     a.u. after   11 cycles
            Convg  =    0.1046D-06                    53 Fock formations.
              S**2 =  0.7870                  -V/T =  0.9974
 <Sx>= 0.0000 <Sy>= 0.0000 <Sz>= 0.5000 <S**2>= 0.7870 S= 0.5183
 <L.S>= 0.000000000000E+00
 Annihilation of the first spin contaminant:
 S**2 before annihilation     0.7870,   after     0.7507
 Leave Link  508 at Sat Feb  6 23:47:55 2021, MaxMem=    33554432 cpu:         0.1
 (Enter /apps/applications/gaussian/G09.D01/2/default/g09/l801.exe)
 Range of M.O.s used for correlation:     1    63
 NBasis=    63 NAE=    38 NBE=    37 NFC=     0 NFV=     0
 NROrb=     63 NOA=    38 NOB=    37 NVA=    25 NVB=    26
 Leave Link  801 at Sat Feb  6 23:47:55 2021, MaxMem=    33554432 cpu:         0.0
 (Enter /apps/applications/gaussian/G09.D01/2/default/g09/l1101.exe)
 Using compressed storage, NAtomX=    24.
 Will process     25 centers per pass.
 Leave Link 1101 at Sat Feb  6 23:47:55 2021, MaxMem=    33554432 cpu:         0.1
 (Enter /apps/applications/gaussian/G09.D01/2/default/g09/l1102.exe)
 Symmetrizing basis deriv contribution to polar:
 IMax=3 JMax=2 DiffMx= 0.00D+00
 Leave Link 1102 at Sat Feb  6 23:47:55 2021, MaxMem=    33554432 cpu:         0.0
 (Enter /apps/applications/gaussian/G09.D01/2/default/g09/l1110.exe)
 Forming Gx(P) for the SCF density, NAtomX=    24.
 Integral derivatives from FoFJK, PRISM(SPDF).
 Do as many integral derivatives as possible in FoFJK.
 G2DrvN: MDV=      33495245.
 G2DrvN: will do    25 centers at a time, making    1 passes.
 Calling FoFCou, ICntrl=  3107 FMM=F I1Cent=   0 AccDes= 0.00D+00.
 FoFJK:  IHMeth=40 ICntrl=    3107 DoSepK=F KAlg= 0 I1Cent=   0 FoldK=F
 IRaf=         0 NMat=   1 IRICut=       1 DoRegI=T DoRafI=F ISym2E= 0.
 FoFCou: FMM=F IPFlag=           0 FMFlag=      100000 FMFlg1=           0
         NFxFlg=           0 DoJE=F BraDBF=F KetDBF=F FulRan=T
         wScrn=  0.000000 ICntrl=    3107 IOpCl=  1 I1Cent=           0 NGrid=           0
         NMat0=    1 NMatS0=      1 NMatT0=    0 NMatD0=    1 NMtDS0=    0 NMtDT0=    0
 Symmetry not used in FoFCou.
 End of G2Drv F.D. properties file   721 does not exist.
 End of G2Drv F.D. properties file   722 does not exist.
 End of G2Drv F.D. properties file   788 does not exist.
 Leave Link 1110 at Sat Feb  6 23:47:55 2021, MaxMem=    33554432 cpu:         0.0
 (Enter /apps/applications/gaussian/G09.D01/2/default/g09/l1002.exe)
 Minotr:  UHF open shell wavefunction.
          IDoAtm=111111111111111111111111
          Direct CPHF calculation.
          Differentiating once with respect to electric field.
                with respect to dipole field.
          Differentiating once with respect to nuclear coordinates.
          Electric field/nuclear overlap derivatives assumed to be zero.
          Requested convergence is 1.0D-08 RMS, and 1.0D-07 maximum.
          NewPWx=T KeepS1=F KeepF1=F KeepIn=T MapXYZ=F SortEE=F KeepMc=T.
          MDV=      33495171 using IRadAn=       2.
 Keep J ints in memory in canonical form, NReq=894630.
 FoFCou: FMM=F IPFlag=           0 FMFlag=           0 FMFlg1=           0
         NFxFlg=           0 DoJE=F BraDBF=F KetDBF=F FulRan=T
         wScrn=  0.000000 ICntrl=     600 IOpCl=  2 I1Cent=           0 NGrid=           0
         NMat0=    1 NMatS0=    141 NMatT0=    0 NMatD0=    1 NMtDS0=    0 NMtDT0=    0
 Symmetry not used in FoFCou.
          Solving linear equations separately, MaxMat=       0.
          There are    75 degrees of freedom in the 1st order CPHF.  IDoFFX=5 NUNeed=    75.
 LinEq1:  Iter=  0 NonCon=    75 RMS=1.92D-01 Max=1.86D+00 NDo=    75
 AX will form    75 AO Fock derivatives at one time.
 LinEq1:  Iter=  1 NonCon=    75 RMS=3.01D-02 Max=2.69D-01 NDo=    75
 LinEq1:  Iter=  2 NonCon=    75 RMS=6.45D-03 Max=1.33D-01 NDo=    75
 LinEq1:  Iter=  3 NonCon=    75 RMS=1.77D-03 Max=4.50D-02 NDo=    75
 LinEq1:  Iter=  4 NonCon=    75 RMS=4.45D-04 Max=9.32D-03 NDo=    75
 LinEq1:  Iter=  5 NonCon=    75 RMS=1.09D-04 Max=1.53D-03 NDo=    75
 LinEq1:  Iter=  6 NonCon=    75 RMS=2.24D-05 Max=2.66D-04 NDo=    75
 LinEq1:  Iter=  7 NonCon=    74 RMS=4.67D-06 Max=5.59D-05 NDo=    75
 LinEq1:  Iter=  8 NonCon=    45 RMS=1.18D-06 Max=2.05D-05 NDo=    75
 LinEq1:  Iter=  9 NonCon=    14 RMS=3.43D-07 Max=5.82D-06 NDo=    75
 LinEq1:  Iter= 10 NonCon=     3 RMS=8.34D-08 Max=8.83D-07 NDo=    75
 LinEq1:  Iter= 11 NonCon=     3 RMS=2.01D-08 Max=2.23D-07 NDo=    75
 LinEq1:  Iter= 12 NonCon=     0 RMS=4.39D-09 Max=6.07D-08 NDo=    75
 Linear equations converged to 1.000D-08 1.000D-07 after    12 iterations.
 FullF1:  Do perturbations    1 to     3.
 Isotropic polarizability for W=    0.000000       82.99 Bohr**3.
 End of Minotr F.D. properties file   721 does not exist.
 End of Minotr F.D. properties file   722 does not exist.
 End of Minotr F.D. properties file   788 does not exist.
 Leave Link 1002 at Sat Feb  6 23:47:56 2021, MaxMem=    33554432 cpu:         0.8
 (Enter /apps/applications/gaussian/G09.D01/2/default/g09/l601.exe)
 Copying SCF densities to generalized density rwf, IOpCl= 1 IROHF=0.

 **********************************************************************

            Population analysis using the SCF density.

 **********************************************************************

 Alpha  occ. eigenvalues --   -1.22299  -1.18017  -1.17538  -1.12497  -1.09573
 Alpha  occ. eigenvalues --   -1.08294  -1.05623  -0.99282  -0.97783  -0.90457
 Alpha  occ. eigenvalues --   -0.81355  -0.77247  -0.74200  -0.72640  -0.70383
 Alpha  occ. eigenvalues --   -0.67252  -0.64338  -0.63507  -0.60698  -0.60412
 Alpha  occ. eigenvalues --   -0.58967  -0.57884  -0.56900  -0.55414  -0.54373
 Alpha  occ. eigenvalues --   -0.53682  -0.52981  -0.51624  -0.49316  -0.49145
 Alpha  occ. eigenvalues --   -0.48268  -0.47370  -0.45367  -0.41942  -0.41469
 Alpha  occ. eigenvalues --   -0.40565  -0.39607  -0.36757
 Alpha virt. eigenvalues --   -0.03175  -0.01248  -0.00558   0.01143   0.04573
 Alpha virt. eigenvalues --    0.08185   0.08350   0.08684   0.09413   0.10820
 Alpha virt. eigenvalues --    0.11069   0.12194   0.13231   0.13424   0.15644
 Alpha virt. eigenvalues --    0.16126   0.16558   0.17104   0.17444   0.18036
 Alpha virt. eigenvalues --    0.19011   0.19197   0.19913   0.20043   0.23307
  Beta  occ. eigenvalues --   -1.21906  -1.18007  -1.17098  -1.12488  -1.09066
  Beta  occ. eigenvalues --   -1.06153  -1.00549  -0.98921  -0.96458  -0.90308
  Beta  occ. eigenvalues --   -0.80983  -0.76506  -0.73849  -0.71451  -0.70156
  Beta  occ. eigenvalues --   -0.64994  -0.64016  -0.63101  -0.60619  -0.59856
  Beta  occ. eigenvalues --   -0.58759  -0.57792  -0.55498  -0.54955  -0.53744
  Beta  occ. eigenvalues --   -0.53151  -0.51023  -0.50213  -0.49150  -0.48485
  Beta  occ. eigenvalues --   -0.47853  -0.47259  -0.43700  -0.41911  -0.40576
  Beta  occ. eigenvalues --   -0.37276  -0.36764
  Beta virt. eigenvalues --   -0.09772  -0.01566  -0.01014  -0.00557   0.01146
  Beta virt. eigenvalues --    0.04969   0.08287   0.08726   0.09050   0.10070
  Beta virt. eigenvalues --    0.10972   0.11653   0.12294   0.13264   0.14048
  Beta virt. eigenvalues --    0.15934   0.16155   0.16740   0.17141   0.17465
  Beta virt. eigenvalues --    0.18061   0.19057   0.19197   0.19922   0.20048
  Beta virt. eigenvalues --    0.23307
          Condensed to atoms (all electrons):
               1          2          3          4          5          6
     1  O    6.444102   0.000000   0.000000   0.000000   0.000000   0.000000
     2  C    0.000000   3.439349   0.000000   0.000000   0.000000   0.000000
     3  C    0.000000   0.000000   4.317709   0.000000   0.000000   0.000000
     4  C    0.000000   0.000000   0.000000   4.240942   0.000000   0.000000
     5  C    0.000000   0.000000   0.000000   0.000000   4.280864   0.000000
     6  C    0.000000   0.000000   0.000000   0.000000   0.000000   4.079625
     7  H    0.000000   0.000000   0.000000   0.000000   0.000000   0.000000
     8  C    0.000000   0.000000   0.000000   0.000000   0.000000   0.000000
     9  O    0.000000   0.000000   0.000000   0.000000   0.000000   0.000000
    10  C    0.000000   0.000000   0.000000   0.000000   0.000000   0.000000
    11  H    0.000000   0.000000   0.000000   0.000000   0.000000   0.000000
    12  H    0.000000   0.000000   0.000000   0.000000   0.000000   0.000000
    13  H    0.000000   0.000000   0.000000   0.000000   0.000000   0.000000
    14  H    0.000000   0.000000   0.000000   0.000000   0.000000   0.000000
    15  H    0.000000   0.000000   0.000000   0.000000   0.000000   0.000000
    16  H    0.000000   0.000000   0.000000   0.000000   0.000000   0.000000
    17  H    0.000000   0.000000   0.000000   0.000000   0.000000   0.000000
    18  H    0.000000   0.000000   0.000000   0.000000   0.000000   0.000000
    19  H    0.000000   0.000000   0.000000   0.000000   0.000000   0.000000
    20  H    0.000000   0.000000   0.000000   0.000000   0.000000   0.000000
    21  O    0.000000   0.000000   0.000000   0.000000   0.000000   0.000000
    22  O    0.000000   0.000000   0.000000   0.000000   0.000000   0.000000
    23  O    0.000000   0.000000   0.000000   0.000000   0.000000   0.000000
    24  O    0.000000   0.000000   0.000000   0.000000   0.000000   0.000000
               7          8          9         10         11         12
     1  O    0.000000   0.000000   0.000000   0.000000   0.000000   0.000000
     2  C    0.000000   0.000000   0.000000   0.000000   0.000000   0.000000
     3  C    0.000000   0.000000   0.000000   0.000000   0.000000   0.000000
     4  C    0.000000   0.000000   0.000000   0.000000   0.000000   0.000000
     5  C    0.000000   0.000000   0.000000   0.000000   0.000000   0.000000
     6  C    0.000000   0.000000   0.000000   0.000000   0.000000   0.000000
     7  H    0.826383   0.000000   0.000000   0.000000   0.000000   0.000000
     8  C    0.000000   3.455937   0.000000   0.000000   0.000000   0.000000
     9  O    0.000000   0.000000   6.489039   0.000000   0.000000   0.000000
    10  C    0.000000   0.000000   0.000000   4.618846   0.000000   0.000000
    11  H    0.000000   0.000000   0.000000   0.000000   0.702249   0.000000
    12  H    0.000000   0.000000   0.000000   0.000000   0.000000   0.802868
    13  H    0.000000   0.000000   0.000000   0.000000   0.000000   0.000000
    14  H    0.000000   0.000000   0.000000   0.000000   0.000000   0.000000
    15  H    0.000000   0.000000   0.000000   0.000000   0.000000   0.000000
    16  H    0.000000   0.000000   0.000000   0.000000   0.000000   0.000000
    17  H    0.000000   0.000000   0.000000   0.000000   0.000000   0.000000
    18  H    0.000000   0.000000   0.000000   0.000000   0.000000   0.000000
    19  H    0.000000   0.000000   0.000000   0.000000   0.000000   0.000000
    20  H    0.000000   0.000000   0.000000   0.000000   0.000000   0.000000
    21  O    0.000000   0.000000   0.000000   0.000000   0.000000   0.000000
    22  O    0.000000   0.000000   0.000000   0.000000   0.000000   0.000000
    23  O    0.000000   0.000000   0.000000   0.000000   0.000000   0.000000
    24  O    0.000000   0.000000   0.000000   0.000000   0.000000   0.000000
              13         14         15         16         17         18
     1  O    0.000000   0.000000   0.000000   0.000000   0.000000   0.000000
     2  C    0.000000   0.000000   0.000000   0.000000   0.000000   0.000000
     3  C    0.000000   0.000000   0.000000   0.000000   0.000000   0.000000
     4  C    0.000000   0.000000   0.000000   0.000000   0.000000   0.000000
     5  C    0.000000   0.000000   0.000000   0.000000   0.000000   0.000000
     6  C    0.000000   0.000000   0.000000   0.000000   0.000000   0.000000
     7  H    0.000000   0.000000   0.000000   0.000000   0.000000   0.000000
     8  C    0.000000   0.000000   0.000000   0.000000   0.000000   0.000000
     9  O    0.000000   0.000000   0.000000   0.000000   0.000000   0.000000
    10  C    0.000000   0.000000   0.000000   0.000000   0.000000   0.000000
    11  H    0.000000   0.000000   0.000000   0.000000   0.000000   0.000000
    12  H    0.000000   0.000000   0.000000   0.000000   0.000000   0.000000
    13  H    0.746053   0.000000   0.000000   0.000000   0.000000   0.000000
    14  H    0.000000   0.841841   0.000000   0.000000   0.000000   0.000000
    15  H    0.000000   0.000000   0.832278   0.000000   0.000000   0.000000
    16  H    0.000000   0.000000   0.000000   0.825847   0.000000   0.000000
    17  H    0.000000   0.000000   0.000000   0.000000   0.837025   0.000000
    18  H    0.000000   0.000000   0.000000   0.000000   0.000000   0.806664
    19  H    0.000000   0.000000   0.000000   0.000000   0.000000   0.000000
    20  H    0.000000   0.000000   0.000000   0.000000   0.000000   0.000000
    21  O    0.000000   0.000000   0.000000   0.000000   0.000000   0.000000
    22  O    0.000000   0.000000   0.000000   0.000000   0.000000   0.000000
    23  O    0.000000   0.000000   0.000000   0.000000   0.000000   0.000000
    24  O    0.000000   0.000000   0.000000   0.000000   0.000000   0.000000
              19         20         21         22         23         24
     1  O    0.000000   0.000000   0.000000   0.000000   0.000000   0.000000
     2  C    0.000000   0.000000   0.000000   0.000000   0.000000   0.000000
     3  C    0.000000   0.000000   0.000000   0.000000   0.000000   0.000000
     4  C    0.000000   0.000000   0.000000   0.000000   0.000000   0.000000
     5  C    0.000000   0.000000   0.000000   0.000000   0.000000   0.000000
     6  C    0.000000   0.000000   0.000000   0.000000   0.000000   0.000000
     7  H    0.000000   0.000000   0.000000   0.000000   0.000000   0.000000
     8  C    0.000000   0.000000   0.000000   0.000000   0.000000   0.000000
     9  O    0.000000   0.000000   0.000000   0.000000   0.000000   0.000000
    10  C    0.000000   0.000000   0.000000   0.000000   0.000000   0.000000
    11  H    0.000000   0.000000   0.000000   0.000000   0.000000   0.000000
    12  H    0.000000   0.000000   0.000000   0.000000   0.000000   0.000000
    13  H    0.000000   0.000000   0.000000   0.000000   0.000000   0.000000
    14  H    0.000000   0.000000   0.000000   0.000000   0.000000   0.000000
    15  H    0.000000   0.000000   0.000000   0.000000   0.000000   0.000000
    16  H    0.000000   0.000000   0.000000   0.000000   0.000000   0.000000
    17  H    0.000000   0.000000   0.000000   0.000000   0.000000   0.000000
    18  H    0.000000   0.000000   0.000000   0.000000   0.000000   0.000000
    19  H    0.793691   0.000000   0.000000   0.000000   0.000000   0.000000
    20  H    0.000000   0.790354   0.000000   0.000000   0.000000   0.000000
    21  O    0.000000   0.000000   6.178338   0.000000   0.000000   0.000000
    22  O    0.000000   0.000000   0.000000   6.299524   0.000000   0.000000
    23  O    0.000000   0.000000   0.000000   0.000000   6.206544   0.000000
    24  O    0.000000   0.000000   0.000000   0.000000   0.000000   6.143928
          Atomic-Atomic Spin Densities.
               1          2          3          4          5          6
     1  O    0.040267   0.000000   0.000000   0.000000   0.000000   0.000000
     2  C    0.000000  -0.004146   0.000000   0.000000   0.000000   0.000000
     3  C    0.000000   0.000000   0.534227   0.000000   0.000000   0.000000
     4  C    0.000000   0.000000   0.000000  -0.023994   0.000000   0.000000
     5  C    0.000000   0.000000   0.000000   0.000000   0.019053   0.000000
     6  C    0.000000   0.000000   0.000000   0.000000   0.000000  -0.000893
     7  H    0.000000   0.000000   0.000000   0.000000   0.000000   0.000000
     8  C    0.000000   0.000000   0.000000   0.000000   0.000000   0.000000
     9  O    0.000000   0.000000   0.000000   0.000000   0.000000   0.000000
    10  C    0.000000   0.000000   0.000000   0.000000   0.000000   0.000000
    11  H    0.000000   0.000000   0.000000   0.000000   0.000000   0.000000
    12  H    0.000000   0.000000   0.000000   0.000000   0.000000   0.000000
    13  H    0.000000   0.000000   0.000000   0.000000   0.000000   0.000000
    14  H    0.000000   0.000000   0.000000   0.000000   0.000000   0.000000
    15  H    0.000000   0.000000   0.000000   0.000000   0.000000   0.000000
    16  H    0.000000   0.000000   0.000000   0.000000   0.000000   0.000000
    17  H    0.000000   0.000000   0.000000   0.000000   0.000000   0.000000
    18  H    0.000000   0.000000   0.000000   0.000000   0.000000   0.000000
    19  H    0.000000   0.000000   0.000000   0.000000   0.000000   0.000000
    20  H    0.000000   0.000000   0.000000   0.000000   0.000000   0.000000
    21  O    0.000000   0.000000   0.000000   0.000000   0.000000   0.000000
    22  O    0.000000   0.000000   0.000000   0.000000   0.000000   0.000000
    23  O    0.000000   0.000000   0.000000   0.000000   0.000000   0.000000
    24  O    0.000000   0.000000   0.000000   0.000000   0.000000   0.000000
               7          8          9         10         11         12
     1  O    0.000000   0.000000   0.000000   0.000000   0.000000   0.000000
     2  C    0.000000   0.000000   0.000000   0.000000   0.000000   0.000000
     3  C    0.000000   0.000000   0.000000   0.000000   0.000000   0.000000
     4  C    0.000000   0.000000   0.000000   0.000000   0.000000   0.000000
     5  C    0.000000   0.000000   0.000000   0.000000   0.000000   0.000000
     6  C    0.000000   0.000000   0.000000   0.000000   0.000000   0.000000
     7  H    0.000018   0.000000   0.000000   0.000000   0.000000   0.000000
     8  C    0.000000   0.000185   0.000000   0.000000   0.000000   0.000000
     9  O    0.000000   0.000000   0.000100   0.000000   0.000000   0.000000
    10  C    0.000000   0.000000   0.000000   0.000027   0.000000   0.000000
    11  H    0.000000   0.000000   0.000000   0.000000   0.000011   0.000000
    12  H    0.000000   0.000000   0.000000   0.000000   0.000000  -0.015167
    13  H    0.000000   0.000000   0.000000   0.000000   0.000000   0.000000
    14  H    0.000000   0.000000   0.000000   0.000000   0.000000   0.000000
    15  H    0.000000   0.000000   0.000000   0.000000   0.000000   0.000000
    16  H    0.000000   0.000000   0.000000   0.000000   0.000000   0.000000
    17  H    0.000000   0.000000   0.000000   0.000000   0.000000   0.000000
    18  H    0.000000   0.000000   0.000000   0.000000   0.000000   0.000000
    19  H    0.000000   0.000000   0.000000   0.000000   0.000000   0.000000
    20  H    0.000000   0.000000   0.000000   0.000000   0.000000   0.000000
    21  O    0.000000   0.000000   0.000000   0.000000   0.000000   0.000000
    22  O    0.000000   0.000000   0.000000   0.000000   0.000000   0.000000
    23  O    0.000000   0.000000   0.000000   0.000000   0.000000   0.000000
    24  O    0.000000   0.000000   0.000000   0.000000   0.000000   0.000000
              13         14         15         16         17         18
     1  O    0.000000   0.000000   0.000000   0.000000   0.000000   0.000000
     2  C    0.000000   0.000000   0.000000   0.000000   0.000000   0.000000
     3  C    0.000000   0.000000   0.000000   0.000000   0.000000   0.000000
     4  C    0.000000   0.000000   0.000000   0.000000   0.000000   0.000000
     5  C    0.000000   0.000000   0.000000   0.000000   0.000000   0.000000
     6  C    0.000000   0.000000   0.000000   0.000000   0.000000   0.000000
     7  H    0.000000   0.000000   0.000000   0.000000   0.000000   0.000000
     8  C    0.000000   0.000000   0.000000   0.000000   0.000000   0.000000
     9  O    0.000000   0.000000   0.000000   0.000000   0.000000   0.000000
    10  C    0.000000   0.000000   0.000000   0.000000   0.000000   0.000000
    11  H    0.000000   0.000000   0.000000   0.000000   0.000000   0.000000
    12  H    0.000000   0.000000   0.000000   0.000000   0.000000   0.000000
    13  H   -0.118287   0.000000   0.000000   0.000000   0.000000   0.000000
    14  H    0.000000   0.011541   0.000000   0.000000   0.000000   0.000000
    15  H    0.000000   0.000000   0.001827   0.000000   0.000000   0.000000
    16  H    0.000000   0.000000   0.000000  -0.000645   0.000000   0.000000
    17  H    0.000000   0.000000   0.000000   0.000000  -0.000169   0.000000
    18  H    0.000000   0.000000   0.000000   0.000000   0.000000   0.000006
    19  H    0.000000   0.000000   0.000000   0.000000   0.000000   0.000000
    20  H    0.000000   0.000000   0.000000   0.000000   0.000000   0.000000
    21  O    0.000000   0.000000   0.000000   0.000000   0.000000   0.000000
    22  O    0.000000   0.000000   0.000000   0.000000   0.000000   0.000000
    23  O    0.000000   0.000000   0.000000   0.000000   0.000000   0.000000
    24  O    0.000000   0.000000   0.000000   0.000000   0.000000   0.000000
              19         20         21         22         23         24
     1  O    0.000000   0.000000   0.000000   0.000000   0.000000   0.000000
     2  C    0.000000   0.000000   0.000000   0.000000   0.000000   0.000000
     3  C    0.000000   0.000000   0.000000   0.000000   0.000000   0.000000
     4  C    0.000000   0.000000   0.000000   0.000000   0.000000   0.000000
     5  C    0.000000   0.000000   0.000000   0.000000   0.000000   0.000000
     6  C    0.000000   0.000000   0.000000   0.000000   0.000000   0.000000
     7  H    0.000000   0.000000   0.000000   0.000000   0.000000   0.000000
     8  C    0.000000   0.000000   0.000000   0.000000   0.000000   0.000000
     9  O    0.000000   0.000000   0.000000   0.000000   0.000000   0.000000
    10  C    0.000000   0.000000   0.000000   0.000000   0.000000   0.000000
    11  H    0.000000   0.000000   0.000000   0.000000   0.000000   0.000000
    12  H    0.000000   0.000000   0.000000   0.000000   0.000000   0.000000
    13  H    0.000000   0.000000   0.000000   0.000000   0.000000   0.000000
    14  H    0.000000   0.000000   0.000000   0.000000   0.000000   0.000000
    15  H    0.000000   0.000000   0.000000   0.000000   0.000000   0.000000
    16  H    0.000000   0.000000   0.000000   0.000000   0.000000   0.000000
    17  H    0.000000   0.000000   0.000000   0.000000   0.000000   0.000000
    18  H    0.000000   0.000000   0.000000   0.000000   0.000000   0.000000
    19  H   -0.000001   0.000000   0.000000   0.000000   0.000000   0.000000
    20  H    0.000000  -0.000002   0.000000   0.000000   0.000000   0.000000
    21  O    0.000000   0.000000   0.000070   0.000000   0.000000   0.000000
    22  O    0.000000   0.000000   0.000000  -0.000070   0.000000   0.000000
    23  O    0.000000   0.000000   0.000000   0.000000   0.659534   0.000000
    24  O    0.000000   0.000000   0.000000   0.000000   0.000000  -0.103490
 Mulliken charges and spin densities:
               1          2
     1  O   -0.444102   0.040267
     2  C    0.560651  -0.004146
     3  C   -0.317709   0.534227
     4  C   -0.240942  -0.023994
     5  C   -0.280864   0.019053
     6  C   -0.079625  -0.000893
     7  H    0.173617   0.000018
     8  C    0.544063   0.000185
     9  O   -0.489039   0.000100
    10  C   -0.618846   0.000027
    11  H    0.297751   0.000011
    12  H    0.197132  -0.015167
    13  H    0.253947  -0.118287
    14  H    0.158159   0.011541
    15  H    0.167722   0.001827
    16  H    0.174153  -0.000645
    17  H    0.162975  -0.000169
    18  H    0.193336   0.000006
    19  H    0.206309  -0.000001
    20  H    0.209646  -0.000002
    21  O   -0.178338   0.000070
    22  O   -0.299524  -0.000070
    23  O   -0.206544   0.659534
    24  O   -0.143928  -0.103490
 Sum of Mulliken charges =   0.00000   1.00000
 Mulliken charges and spin densities with hydrogens summed into heavy atoms:
               1          2
     1  O   -0.444102   0.040267
     2  C    0.560651  -0.004146
     3  C    0.133370   0.400772
     4  C    0.084939  -0.010626
     5  C    0.056264   0.018239
     6  C    0.093992  -0.000875
     8  C    0.544063   0.000185
     9  O   -0.489039   0.000100
    10  C   -0.009555   0.000029
    21  O   -0.178338   0.000070
    22  O   -0.001774  -0.000059
    23  O   -0.206544   0.659534
    24  O   -0.143928  -0.103490
 APT charges:
               1
     1  O   -0.761975
     2  C    1.111579
     3  C   -0.087556
     4  C   -0.302672
     5  C   -0.330150
     6  C   -0.080514
     7  H    0.139916
     8  C    1.181695
     9  O   -0.791076
    10  C   -0.977331
    11  H    0.314178
    12  H    0.180966
    13  H   -0.157431
    14  H    0.162168
    15  H    0.159142
    16  H    0.174668
    17  H    0.166114
    18  H    0.232996
    19  H    0.252776
    20  H    0.256361
    21  O   -0.134721
    22  O   -0.362723
    23  O    0.072450
    24  O   -0.419824
 Sum of APT charges =  -0.00096
 APT charges with hydrogens summed into heavy atoms:
               1
     1  O   -0.761975
     2  C    1.111579
     3  C   -0.064022
     4  C    0.018639
     5  C    0.010633
     6  C    0.059403
     8  C    1.181695
     9  O   -0.791076
    10  C   -0.235198
    21  O   -0.134721
    22  O   -0.048544
    23  O    0.072450
    24  O   -0.419824
 Charge=              0.0000 electrons
 Dipole moment (field-independent basis, Debye):
    X=             -0.2082    Y=             -1.0325    Z=              2.2878  Tot=              2.5186
 N-N= 5.216478993537D+02 E-N=-9.470281411230D+02  KE=-4.410181355982D+01
  Exact polarizability:  83.898 -25.983  71.005  -1.499  14.749  94.073
 Approx polarizability:  59.140 -13.638  46.749   3.094   9.294  77.503
 Leave Link  601 at Sat Feb  6 23:47:56 2021, MaxMem=    33554432 cpu:         0.0
 (Enter /apps/applications/gaussian/G09.D01/2/default/g09/l701.exe)
 Compute integral second derivatives.
 ... and contract with generalized density number  0.
 Leave Link  701 at Sat Feb  6 23:47:56 2021, MaxMem=    33554432 cpu:         0.1
 (Enter /apps/applications/gaussian/G09.D01/2/default/g09/l702.exe)
 L702 exits ... SP integral derivatives will be done elsewhere.
 Leave Link  702 at Sat Feb  6 23:47:56 2021, MaxMem=    33554432 cpu:         0.0
 (Enter /apps/applications/gaussian/G09.D01/2/default/g09/l703.exe)
 Compute integral second derivatives, UseDBF=F ICtDFT=           0.
 Integral derivatives from FoFJK, PRISM(SPDF).
 Calling FoFJK, ICntrl=    100127 FMM=F ISym2X=0 I1Cent= 0 IOpClX= 1 NMat=1 NMatS=1 NMatT=0.
 FoFJK:  IHMeth=40 ICntrl=  100127 DoSepK=F KAlg= 0 I1Cent=   0 FoldK=F
 IRaf=         0 NMat=   1 IRICut=       1 DoRegI=T DoRafI=F ISym2E= 0.
 FoFCou: FMM=F IPFlag=           0 FMFlag=      100000 FMFlg1=         800
         NFxFlg=           0 DoJE=F BraDBF=F KetDBF=F FulRan=T
         wScrn=  0.000000 ICntrl=  100127 IOpCl=  1 I1Cent=           0 NGrid=           0
         NMat0=    1 NMatS0=      1 NMatT0=    0 NMatD0=    1 NMtDS0=    0 NMtDT0=    0
 Symmetry not used in FoFCou.
 Leave Link  703 at Sat Feb  6 23:47:56 2021, MaxMem=    33554432 cpu:         0.1
 (Enter /apps/applications/gaussian/G09.D01/2/default/g09/l716.exe)
 Dipole        =-8.19164308D-02-4.06217353D-01 9.00074327D-01
 Polarizability= 8.38983249D+01-2.59831132D+01 7.10050166D+01
                -1.49856461D+00 1.47493499D+01 9.40729145D+01
 HyperPolar    = 8.10653179D+01-8.38214062D+01 5.79643154D+01
                 2.24487833D+01-3.48632030D+01 3.39983966D+01
                -2.82856899D+01 1.31683170D+01-2.20016661D+01
                 1.25493245D+02
 -------------------------------------------------------------------
 Center     Atomic                   Forces (Hartrees/Bohr)
 Number     Number              X              Y              Z
 -------------------------------------------------------------------
      1        8           0.000000075   -0.000000121   -0.000001107
      2        6          -0.000000225   -0.000000066    0.000000785
      3        6           0.000000449    0.000000361    0.000000064
      4        6          -0.000000310   -0.000000188    0.000000044
      5        6           0.000000420   -0.000000271    0.000000497
      6        6           0.000000103    0.000000209   -0.000000361
      7        1           0.000000020    0.000000240   -0.000000109
      8        6           0.000000573    0.000000133    0.000000400
      9        8          -0.000000176   -0.000000034   -0.000000118
     10        6          -0.000000155    0.000000079   -0.000000413
     11        1          -0.000000216    0.000000229    0.000000120
     12        1           0.000000001    0.000000032   -0.000000002
     13        1          -0.000000062   -0.000000017    0.000000230
     14        1          -0.000000045   -0.000000046    0.000000221
     15        1          -0.000000121   -0.000000024   -0.000000010
     16        1           0.000000148    0.000000047    0.000000020
     17        1          -0.000000050   -0.000000257    0.000000064
     18        1           0.000000075   -0.000000111   -0.000000043
     19        1          -0.000000007   -0.000000119   -0.000000018
     20        1           0.000000038   -0.000000099    0.000000077
     21        8          -0.000000443   -0.000000149   -0.000000289
     22        8           0.000000230   -0.000000337   -0.000000079
     23        8          -0.000000264   -0.000000008   -0.000000249
     24        8          -0.000000056    0.000000515    0.000000280
 -------------------------------------------------------------------
 Cartesian Forces:  Max     0.000001107 RMS     0.000000270
 Leave Link  716 at Sat Feb  6 23:47:56 2021, MaxMem=    33554432 cpu:         0.0
 (Enter /apps/applications/gaussian/G09.D01/2/default/g09/l103.exe)

 GradGradGradGradGradGradGradGradGradGradGradGradGradGradGradGradGradGrad
 Berny optimization.
 Search for a saddle point.
 Step number   1 out of a maximum of  100
 All quantities printed in internal units (Hartrees-Bohrs-Radians)
 Swapping is turned off.
 Second derivative matrix not updated -- analytic derivatives used.
 ITU=  0
     Eigenvalues ---   -0.25790   0.00013   0.00021   0.00038   0.00050
     Eigenvalues ---    0.00115   0.00196   0.00300   0.00395   0.00604
     Eigenvalues ---    0.00689   0.00873   0.01236   0.01360   0.01498
     Eigenvalues ---    0.02062   0.02869   0.03068   0.03902   0.03944
     Eigenvalues ---    0.04334   0.04487   0.04792   0.04884   0.05368
     Eigenvalues ---    0.05616   0.05925   0.06504   0.07249   0.07469
     Eigenvalues ---    0.07972   0.08828   0.10317   0.11514   0.11860
     Eigenvalues ---    0.13625   0.14133   0.16804   0.17691   0.19069
     Eigenvalues ---    0.21617   0.23188   0.25131   0.28172   0.29459
     Eigenvalues ---    0.32844   0.40317   0.44702   0.48035   0.49243
     Eigenvalues ---    0.52819   0.54532   0.55900   0.57030   0.57405
     Eigenvalues ---    0.58879   0.60557   0.61275   0.65444   0.66587
     Eigenvalues ---    0.67550   0.71142   0.72540   0.73624   1.65289
     Eigenvalues ---    1.75039
 Eigenvectors required to have negative eigenvalues:
                          X13       Y13       Z3        X23       Y23
   1                    0.58127  -0.52018   0.36454  -0.25980   0.18922
                          Z23       Y3        X3        Z13       Y24
   1                   -0.18295   0.18241  -0.17656  -0.11713   0.09990
 RFO step:  Lambda0=3.227973444D-14 Lambda= 0.00000000D+00.
 Linear search not attempted -- option 19 set.
 TrRot=  0.000002  0.000002 -0.000002  0.000000  0.000000  0.000000
 Variable       Old X    -DE/DX   Delta X   Delta X   Delta X     New X
                                 (Linear)    (Quad)   (Total)
    X1       -2.58307   0.00000   0.00000   0.00005   0.00006  -2.58301
    Y1        3.79044   0.00000   0.00000   0.00002   0.00002   3.79046
    Z1       -1.58800   0.00000   0.00000   0.00001   0.00000  -1.58800
    X2       -2.68657   0.00000   0.00000   0.00003   0.00003  -2.68655
    Y2        4.08299   0.00000   0.00000   0.00001   0.00001   4.08300
    Z2        0.65958   0.00000   0.00000   0.00001   0.00000   0.65959
    X3       -1.24703   0.00000   0.00000  -0.00001  -0.00001  -1.24704
    Y3        2.91526   0.00000   0.00000   0.00000   0.00000   2.91526
    Z3        2.80546   0.00000   0.00000   0.00002   0.00002   2.80548
    X4       -1.46372   0.00000   0.00000   0.00000   0.00000  -1.46372
    Y4        0.09520   0.00000   0.00000  -0.00001   0.00000   0.09519
    Z4        3.08864   0.00000   0.00000   0.00000   0.00000   3.08864
    X5        0.81933   0.00000   0.00000   0.00001   0.00001   0.81934
    Y5       -1.32252   0.00000   0.00000   0.00001   0.00001  -1.32251
    Z5        2.00366   0.00000   0.00000   0.00000   0.00000   2.00366
    X6        1.10476   0.00000   0.00000   0.00000   0.00000   1.10477
    Y6       -0.99997   0.00000   0.00000   0.00000   0.00001  -0.99996
    Z6       -0.85650   0.00000   0.00000  -0.00001  -0.00001  -0.85651
    X7        1.03798   0.00000   0.00000   0.00000   0.00000   1.03799
    Y7        1.01844   0.00000   0.00000   0.00000   0.00001   1.01844
    Z7       -1.46434   0.00000   0.00000  -0.00001  -0.00001  -1.46435
    X8        3.59550   0.00000   0.00000   0.00000   0.00000   3.59550
    Y8       -2.17901   0.00000   0.00000   0.00000   0.00000  -2.17901
    Z8       -1.80895   0.00000   0.00000  -0.00001  -0.00001  -1.80896
    X9        5.54162   0.00000   0.00000   0.00001   0.00001   5.54163
    Y9       -1.75032   0.00000   0.00000   0.00002   0.00002  -1.75030
    Z9       -0.68570   0.00000   0.00000  -0.00003  -0.00003  -0.68573
   X10        3.42298   0.00000   0.00000  -0.00001  -0.00001   3.42297
   Y10       -3.76199   0.00000   0.00000  -0.00002  -0.00002  -3.76201
   Z10       -4.12736   0.00000   0.00000   0.00000   0.00000  -4.12736
   X11       -2.75696   0.00000   0.00000   0.00000   0.00000  -2.75696
   Y11        0.14085   0.00000   0.00000   0.00000   0.00000   0.14085
   Z11       -3.88308   0.00000   0.00000   0.00000   0.00000  -3.88308
   X12        0.65930   0.00000   0.00000  -0.00002  -0.00002   0.65928
   Y12        3.70166   0.00000   0.00000   0.00001   0.00001   3.70167
   Z12        3.07977   0.00000   0.00000   0.00007   0.00007   3.07984
   X13       -2.44484   0.00000   0.00000  -0.00006  -0.00006  -2.44489
   Y13        4.02928   0.00000   0.00000  -0.00002  -0.00001   4.02926
   Z13        4.71253   0.00000   0.00000   0.00001   0.00001   4.71254
   X14       -1.66510   0.00000   0.00000   0.00000   0.00000  -1.66510
   Y14       -0.39966   0.00000   0.00000  -0.00002  -0.00002  -0.39968
   Z14        5.12287   0.00000   0.00000   0.00000  -0.00001   5.12286
   X15       -3.21864   0.00000   0.00000   0.00001   0.00001  -3.21863
   Y15       -0.61958   0.00000   0.00000  -0.00001   0.00000  -0.61959
   Z15        2.17032   0.00000   0.00000  -0.00001  -0.00001   2.17031
   X16        2.60585   0.00000   0.00000   0.00001   0.00001   2.60586
   Y16       -0.71013   0.00000   0.00000   0.00003   0.00003  -0.71010
   Z16        2.92961   0.00000   0.00000  -0.00001  -0.00001   2.92960
   X17        0.62500   0.00000   0.00000   0.00003   0.00003   0.62504
   Y17       -3.36585   0.00000   0.00000   0.00001   0.00001  -3.36584
   Z17        2.45287   0.00000   0.00000   0.00001   0.00000   2.45288
   X18        5.28461   0.00000   0.00000  -0.00001  -0.00001   5.28460
   Y18       -4.41068   0.00000   0.00000   0.00000   0.00000  -4.41068
   Z18       -4.77392   0.00000   0.00000  -0.00002  -0.00002  -4.77394
   X19        2.21898   0.00000   0.00000   0.00002   0.00002   2.21900
   Y19       -5.43264   0.00000   0.00000  -0.00003  -0.00003  -5.43267
   Z19       -3.80831   0.00000   0.00000   0.00003   0.00003  -3.80828
   X20        2.50131   0.00000   0.00000  -0.00005  -0.00004   2.50127
   Y20       -2.73031   0.00000   0.00000  -0.00004  -0.00004  -2.73036
   Z20       -5.68925   0.00000   0.00000   0.00000   0.00000  -5.68925
   X21       -1.07243   0.00000   0.00000   0.00000   0.00000  -1.07243
   Y21       -2.31489   0.00000   0.00000   0.00000   0.00000  -2.31489
   Z21       -1.90393   0.00000   0.00000   0.00001   0.00000  -1.90393
   X22       -1.55700   0.00000   0.00000  -0.00001  -0.00001  -1.55700
   Y22       -1.28769   0.00000   0.00000  -0.00001  -0.00001  -1.28770
   Z22       -4.31804   0.00000   0.00000   0.00000   0.00000  -4.31804
   X23       -4.33296   0.00000   0.00000  -0.00007  -0.00006  -4.33302
   Y23        5.62877   0.00000   0.00000  -0.00004  -0.00003   5.62874
   Z23        4.25317   0.00000   0.00000  -0.00002  -0.00002   4.25315
   X24       -4.38893   0.00000   0.00000   0.00004   0.00004  -4.38888
   Y24        5.88237   0.00000   0.00000   0.00004   0.00004   5.88242
   Z24        1.62890   0.00000   0.00000  -0.00001  -0.00001   1.62889
         Item               Value     Threshold  Converged?
 Maximum Force            0.000001     0.000450     YES
 RMS     Force            0.000000     0.000300     YES
 Maximum Displacement     0.000070     0.001800     YES
 RMS     Displacement     0.000023     0.001200     YES
 Predicted change in Energy=-2.251206D-11
 Optimization completed.
    -- Stationary point found.
 Lowest energy point so far.  Saving SCF results.
 GradGradGradGradGradGradGradGradGradGradGradGradGradGradGradGradGradGrad

 Largest change from initial coordinates is atom    0       0.000 Angstoms.
 Leave Link  103 at Sat Feb  6 23:47:56 2021, MaxMem=    33554432 cpu:         0.0
 (Enter /apps/applications/gaussian/G09.D01/2/default/g09/l202.exe)
                          Input orientation:                          
 ---------------------------------------------------------------------
 Center     Atomic      Atomic             Coordinates (Angstroms)
 Number     Number       Type             X           Y           Z
 ---------------------------------------------------------------------
      1          8           0       -1.366900    2.005814   -0.840334
      2          6           0       -1.421674    2.160623    0.349037
      3          6           0       -0.659899    1.542687    1.484586
      4          6           0       -0.774569    0.050377    1.634439
      5          6           0        0.433569   -0.699850    1.060291
      6          6           0        0.584615   -0.529161   -0.453241
      7          1           0        0.549278    0.538934   -0.774895
      8          6           0        1.902659   -1.153083   -0.957255
      9          8           0        2.932499   -0.926229   -0.362859
     10          6           0        1.811362   -1.990762   -2.184107
     11          1           0       -1.458918    0.074536   -2.054836
     12          1           0        0.348889    1.958832    1.629744
     13          1           0       -1.293751    2.132201    2.493763
     14          1           0       -0.881131   -0.211492    2.710904
     15          1           0       -1.703232   -0.327868    1.148486
     16          1           0        1.378954   -0.375786    1.550284
     17          1           0        0.330738   -1.781131    1.298004
     18          1           0        2.796495   -2.334030   -2.526249
     19          1           0        1.174234   -2.874827   -2.015272
     20          1           0        1.323638   -1.444820   -3.010624
     21          8           0       -0.567506   -1.224986   -1.007517
     22          8           0       -0.823927   -0.681416   -2.285010
     23          8           0       -2.292902    2.978618    2.250683
     24          8           0       -2.322521    3.112818    0.861977
 ---------------------------------------------------------------------
                    Distance matrix (angstroms):
                    1          2          3          4          5
     1  O    0.000000
     2  C    1.200654   0.000000
     3  C    2.473781   1.500539   0.000000
     4  C    3.209220   2.554240   1.504192   0.000000
     5  C    3.764928   3.482831   2.530745   1.533651   0.000000
     6  C    3.222476   3.450186   3.097829   2.557666   1.530598
     7  H    2.414075   2.788862   2.752251   2.792159   2.217179
     8  C    4.547782   4.872190   4.449322   3.915705   2.536560
     9  O    5.225867   5.384633   4.734334   4.322651   2.884658
    10  C    5.280123   5.839806   5.661422   5.043271   3.753783
    11  H    2.283269   3.183041   3.914257   3.752288   3.726285
    12  H    3.007894   2.194498   1.100864   2.214584   2.720301
    13  H    3.337293   2.148726   1.329561   2.311272   3.613722
    14  H    4.214702   3.390801   2.151730   1.112972   2.165976
    15  H    3.084574   2.628874   2.168060   1.114287   2.170730
    16  H    4.350493   3.964831   2.800317   2.196897   1.113042
    17  H    4.668556   4.416889   3.473318   2.165482   1.111868
    18  H    6.245832   6.801627   6.562194   5.979065   4.595349
    19  H    5.626588   6.138766   5.926844   5.067055   3.839036
    20  H    4.884263   5.641213   5.750350   5.311751   4.233149
    21  O    3.332424   3.745956   3.725470   2.940979   2.356639
    22  O    3.098889   3.920802   4.379885   3.987485   3.573888
    23  O    3.370195   2.245977   2.305537   3.355546   4.730941
    24  O    2.244222   1.407589   2.370077   3.517300   4.708694
                    6          7          8          9         10
     6  C    0.000000
     7  H    1.116036   0.000000
     8  C    1.542903   2.174354   0.000000
     9  O    2.382938   2.827759   1.210512   0.000000
    10  C    2.576254   3.158812   1.488357   2.388959   0.000000
    11  H    2.665630   2.426266   3.743252   4.811326   3.870000
    12  H    3.253383   2.799742   4.334833   4.355351   5.681864
    13  H    4.392714   4.076687   5.737565   5.947728   6.965847
    14  H    3.501591   3.841875   4.700156   4.950014   5.863144
    15  H    2.800052   3.086186   4.256474   4.912454   5.120914
    16  H    2.160697   2.632780   2.676978   2.525194   4.091552
    17  H    2.167658   3.118873   2.819853   3.202887   3.789629
    18  H    3.528077   4.046127   2.157619   2.584697   1.097898
    19  H    2.879191   3.685494   2.148117   3.101451   1.102728
    20  H    2.815101   3.087620   2.153300   3.141342   1.104109
    21  O    1.455602   2.100651   2.471722   3.571397   2.762207
    22  O    2.315718   2.378107   3.069149   4.226740   2.944370
    23  O    5.281650   4.814994   6.705561   7.027322   7.823496
    24  O    4.842029   4.189446   6.273728   6.740130   7.239761
                   11         12         13         14         15
    11  H    0.000000
    12  H    4.516068   0.000000
    13  H    4.995099   1.864095   0.000000
    14  H    4.809150   2.718853   2.389624   0.000000
    15  H    3.237729   3.109953   2.833617   1.769334   0.000000
    16  H    4.610119   2.552996   3.784640   2.545980   3.108634
    17  H    4.229409   3.754691   4.402610   2.434888   2.504269
    18  H    4.912429   6.456912   7.866248   6.742245   6.146211
    19  H    3.953960   6.109959   7.175840   5.801260   4.977567
    20  H    3.311282   5.836780   7.067113   6.254437   5.263812
    21  O    1.892155   4.234575   4.904804   3.866806   2.596737
    22  O    1.013734   4.865358   5.565415   5.018292   3.561891
    23  O    5.259916   2.899067   1.331845   3.518764   3.534883
    24  O    4.299391   3.009582   2.163955   4.067822   3.507695
                   16         17         18         19         20
    16  H    0.000000
    17  H    1.771270   0.000000
    18  H    4.739437   4.583728   0.000000
    19  H    4.358934   3.589631   1.784738   0.000000
    20  H    4.684845   4.434324   1.787350   1.748704   0.000000
    21  O    3.324484   2.536053   3.853963   2.602154   2.763547
    22  O    4.433461   3.921813   3.987077   2.979338   2.391932
    23  O    5.022461   5.517816   8.771845   8.030082   7.767079
    24  O    5.132742   5.583963   8.206860   7.507180   7.004540
                   21         22         23         24
    21  O    0.000000
    22  O    1.411810   0.000000
    23  O    5.591346   6.010511   0.000000
    24  O    5.039011   5.152235   1.395490   0.000000
 Symmetry turned off by external request.
 Stoichiometry    C7H11O6(2)
 Framework group  C1[X(C7H11O6)]
 Deg. of freedom    66
 Full point group                 C1      NOp   1
 Rotational constants (GHZ):      1.4969134      0.4200686      0.3716139
 Leave Link  202 at Sat Feb  6 23:47:56 2021, MaxMem=    33554432 cpu:         0.0
 (Enter /apps/applications/gaussian/G09.D01/2/default/g09/l716.exe)
 Dipole        =-8.19164308D-02-4.06217353D-01 9.00074327D-01
 Polarizability= 8.38983249D+01-2.59831132D+01 7.10050166D+01
                -1.49856461D+00 1.47493499D+01 9.40729145D+01
 HyperPolar    = 8.10653179D+01-8.38214062D+01 5.79643154D+01
                 2.24487833D+01-3.48632030D+01 3.39983966D+01
                -2.82856899D+01 1.31683170D+01-2.20016661D+01
                 1.25493245D+02
 Full mass-weighted force constant matrix:
 Low frequencies ----1913.8371   -8.5644   -4.3162   -1.7273    0.9731    3.7493
 Low frequencies ---    5.6298   29.6358   32.2487
 ******    1 imaginary frequencies (negative Signs) ****** 
 Diagonal vibrational polarizability:
       79.0376359     247.5834520     110.4142039
 Harmonic frequencies (cm**-1), IR intensities (KM/Mole), Raman scattering
 activities (A**4/AMU), depolarization ratios for plane and unpolarized
 incident light, reduced masses (AMU), force constants (mDyne/A),
 and normal coordinates:
                      1                      2                      3
                      A                      A                      A
 Frequencies --  -1913.8362                29.5341                32.2242
 Red. masses --      1.1237                 6.0259                 4.1326
 Frc consts  --      2.4249                 0.0031                 0.0025
 IR Inten    --    950.3443                 1.7515                 7.1110
  Atom  AN      X      Y      Z        X      Y      Z        X      Y      Z
     1   8     0.00   0.00   0.00     0.25   0.12   0.01    -0.14  -0.01   0.01
     2   6     0.01  -0.02   0.00     0.09   0.03   0.01    -0.06   0.00   0.01
     3   6    -0.03   0.04   0.06     0.00   0.03   0.07    -0.02  -0.04  -0.03
     4   6     0.01  -0.01  -0.01     0.05   0.02   0.02    -0.06  -0.04  -0.05
     5   6     0.00   0.00   0.00     0.08   0.07   0.00    -0.06  -0.06  -0.03
     6   6     0.00   0.00   0.00     0.03   0.05   0.00     0.00  -0.01  -0.02
     7   1     0.00   0.00   0.00     0.09   0.05  -0.01     0.02   0.00   0.01
     8   6     0.00   0.00   0.00    -0.02  -0.04  -0.04     0.02   0.00   0.02
     9   8     0.00   0.00   0.00     0.04   0.04  -0.17     0.03   0.20  -0.07
    10   6     0.00   0.00   0.00    -0.15  -0.24   0.11     0.03  -0.25   0.19
    11   1     0.00   0.00   0.00     0.07   0.16   0.00     0.05   0.06  -0.07
    12   1     0.06  -0.06  -0.13    -0.03   0.07   0.18     0.00  -0.08  -0.08
    13   1     0.73  -0.64  -0.18    -0.13  -0.04   0.03     0.05  -0.03   0.01
    14   1     0.00  -0.01  -0.01     0.05  -0.02   0.01    -0.09  -0.06  -0.06
    15   1     0.00   0.00   0.00     0.07   0.01   0.00    -0.05  -0.02  -0.08
    16   1     0.00   0.00   0.00     0.07   0.14  -0.03    -0.07  -0.10   0.01
    17   1     0.01   0.00   0.00     0.14   0.07   0.03    -0.10  -0.06  -0.07
    18   1     0.00   0.00   0.00    -0.18  -0.31   0.08     0.06  -0.13   0.14
    19   1     0.00   0.00   0.00    -0.14  -0.21   0.31     0.22  -0.34   0.43
    20   1     0.00   0.00   0.00    -0.21  -0.37   0.07    -0.17  -0.49   0.14
    21   8     0.00   0.00   0.00    -0.03   0.12   0.05     0.02   0.01  -0.09
    22   8     0.00   0.00   0.00    -0.01   0.08   0.03     0.07   0.07  -0.08
    23   8    -0.02   0.02  -0.03    -0.23  -0.18  -0.04     0.11   0.05   0.07
    24   8    -0.01   0.01   0.01    -0.07  -0.09  -0.04     0.03   0.05   0.07
                      4                      5                      6
                      A                      A                      A
 Frequencies --     36.1487                70.3062                77.9261
 Red. masses --      7.7944                 1.1891                 7.4551
 Frc consts  --      0.0060                 0.0035                 0.0267
 IR Inten    --      3.3138                 0.9414                 4.4975
  Atom  AN      X      Y      Z        X      Y      Z        X      Y      Z
     1   8     0.28   0.04   0.05     0.01  -0.01  -0.01    -0.06   0.33   0.01
     2   6     0.16   0.02   0.04     0.01   0.00  -0.01    -0.04   0.20   0.02
     3   6    -0.02  -0.07   0.11     0.00   0.00  -0.01     0.04   0.12  -0.07
     4   6    -0.09  -0.07   0.02     0.00   0.00   0.00    -0.01   0.11  -0.15
     5   6    -0.12  -0.08  -0.02     0.01   0.00   0.00     0.02   0.10  -0.07
     6   6    -0.13  -0.04  -0.01     0.00  -0.01   0.00     0.02  -0.05  -0.09
[...]
 0.07613575,0.00002333,-0.00013610,0.00008314,-0.00016788,0.00002771,-0
 .00013061,-0.00082015,0.00054954,0.00010144,-0.03443327,0.00231766,-0.
 00316749,-0.15749811,-0.04320870,-0.06435998,-0.00068191,-0.00075601,-
 0.01187094,0.00008182,0.00037762,-0.00019587,0.00391403,0.00049404,0.0
 0261154,-0.00184212,-0.00061601,-0.00241185,-0.00085488,-0.00009686,-0
 .00028157,-0.00014393,0.00018616,-0.00005069,0.00028352,0.00052060,0.0
 0008115,0.00060969,-0.00055611,-0.00009812,-0.00059467,-0.00008317,0.0
 0047609,-0.00206241,0.00108735,0.00089517,0.19921071,-0.00011528,-0.00
 004115,-0.00021522,0.00034803,-0.00005164,0.00025855,0.00041943,-0.000
 29782,-0.00006583,0.01277691,0.00358770,0.00266158,-0.04694479,-0.0485
 0805,-0.02521573,0.00064030,0.00394579,-0.00008393,0.00016943,0.000224
 12,0.00038189,0.00035552,0.00031962,-0.00141605,0.00016473,-0.00079137
 ,0.00007667,0.00002252,-0.00006008,0.00010963,-0.00003826,0.00011556,0
 .00002095,0.00048230,-0.00069634,-0.00006478,-0.00007307,0.00028152,0.
 00004710,0.00001889,0.00034891,0.00017903,0.00130571,-0.00046969,-0.00
 081308,0.04950447,0.05569952,0.00012169,-0.00006403,0.00001086,-0.0002
 3491,0.00019967,0.00005836,-0.00031520,0.00035943,0.00005130,0.0056547
 9,0.00107773,0.00477913,-0.06646669,-0.02296139,-0.06625232,-0.0221719
 6,-0.00800324,-0.02962200,-0.00030808,0.00035516,-0.00047653,0.0006757
 8,-0.00175792,-0.00391574,0.00011333,0.00026015,0.00020036,-0.00004727
 ,0.00045217,0.00047548,0.00003955,-0.00021404,0.00003555,0.00005220,0.
 00003648,0.00025829,0.00034639,-0.00020584,0.00003158,0.00069742,-0.00
 007910,0.00035692,0.00080907,-0.00069481,-0.00027689,0.08067902,0.0308
 4893,0.09398514,0.00002945,-0.00017016,-0.00029888,-0.00006291,0.00046
 290,0.00048000,-0.00159808,0.00095437,0.00043373,-0.00439534,0.0246708
 1,0.00131111,-0.03487981,-0.01941414,0.00408222,0.00391231,-0.00251249
 ,0.00252867,0.00019567,0.00002580,0.00019217,0.00041158,-0.00028874,0.
 00175793,-0.00047435,0.00021903,-0.00067209,-0.00033656,-0.00003669,-0
 .00026980,-0.00003384,0.00012524,0.00000327,-0.00008032,-0.00010434,0.
 00011879,-0.00055659,0.00074367,0.00020386,0.00017302,0.00054646,0.000
 29188,-0.00049760,0.00090863,-0.00000642,-0.00485956,-0.01916248,0.000
 15042,0.04273798,-0.00011739,0.00011208,-0.00009674,0.00023665,-0.0002
 6384,0.00014443,0.00120897,-0.00066780,-0.00066656,0.01228940,-0.02652
 122,-0.00333869,-0.01642765,-0.20031208,0.03665113,-0.00198184,-0.0084
 6562,0.01551270,-0.00009613,-0.00024718,0.00036803,-0.00129964,0.00128
 029,0.00051458,0.00051104,-0.00035505,-0.00012032,0.00016588,-0.000815
 43,-0.00004111,0.00012527,-0.00004438,0.00013875,0.00004009,-0.0000029
 7,-0.00000118,-0.00016036,0.00001531,-0.00000586,0.00040214,-0.0000666
 5,-0.00067435,0.00064232,0.00014116,0.00024192,-0.00945707,-0.01327445
 ,-0.00097875,0.01375051,0.24931635,-0.00000725,-0.00005042,0.00003563,
 -0.00013550,-0.00001158,-0.00007451,0.00074701,-0.00081511,0.00004110,
 0.00197070,-0.00777419,0.00278152,0.00339179,0.03541853,-0.04058178,0.
 00605558,0.02858977,-0.02112130,0.00028827,0.00021634,-0.00302263,0.00
 110548,0.00079193,-0.00078791,-0.00051311,-0.00001479,-0.00020241,-0.0
 0032573,-0.00002472,0.00026219,-0.00005047,0.00017677,0.00005710,0.000
 10891,0.00005060,0.00002004,0.00033109,-0.00037590,-0.00003069,0.00049
 084,-0.00095000,0.00002202,-0.00020560,0.00010452,0.00034583,-0.002815
 50,-0.00745734,0.00413005,-0.01011923,-0.04778685,0.05826921,0.0000602
 8,-0.00013144,-0.00010802,-0.00013436,0.00016092,0.00016474,-0.0000517
 4,0.00005324,0.00004677,0.00006971,-0.00000132,-0.00015576,0.00013015,
 -0.00009771,-0.00006478,-0.00032153,-0.00074463,-0.00098519,0.00007635
 ,0.00012796,-0.00005888,0.00296726,0.00896756,0.01283125,-0.00272075,-
 0.00059136,-0.00127982,-0.18506953,0.05123900,0.05070780,-0.00009554,0
 .00009272,0.00000407,0.00001138,0.00002577,0.00001437,0.00012558,-0.00
 009651,-0.00001158,0.00000685,-0.00002167,0.00003286,-0.00002949,-0.00
 000122,0.00002571,0.00003406,0.00001624,0.00008153,0.00000171,-0.00004
 265,0.00005824,0.21709630,-0.00006912,0.00003113,0.00013383,0.00010101
 ,-0.00006438,-0.00017964,-0.00002048,-0.00002169,0.00001097,-0.0000079
 4,-0.00001098,-0.00001967,0.00017470,-0.00020783,-0.00006017,0.0003316
 2,-0.00040610,-0.00161235,0.00006855,0.00003316,-0.00007316,0.01541708
 ,-0.00870627,-0.01766673,0.00037294,-0.00007766,0.00154794,0.04977702,
 -0.05311141,-0.01680775,0.00007538,0.00000286,0.00000110,0.00002612,0.
 00000418,-0.00001545,-0.00001212,0.00002398,-0.00000844,0.00001225,0.0
 0000879,-0.00001392,0.00000753,0.00001134,-0.00001140,0.00004465,0.000
 03154,-0.00001054,-0.00000418,0.00005737,0.00001254,-0.06527320,0.0602
 4863,-0.00000855,0.00002504,-0.00003926,0.00002677,-0.00002315,0.00005
 254,0.00000059,-0.00001490,-0.00004732,-0.00001584,0.00001820,-0.00006
 354,0.00008716,-0.00001583,-0.00004905,0.00020847,-0.00174769,-0.00164
 793,0.00018473,-0.00009662,-0.00003338,0.02250326,-0.01839993,-0.01804
 214,0.00000432,0.00124121,0.00098139,0.04838600,-0.01656776,-0.0531353
 7,-0.00000266,-0.00006812,0.00000506,0.00001341,-0.00000511,0.00000774
 ,-0.00004378,0.00003982,0.00001616,0.00001711,-0.00001068,-0.00000630,
 0.00000435,-0.00000382,0.00000525,0.00007765,-0.00005574,-0.00000608,0
 .00005799,-0.00006554,-0.00000939,-0.06570915,0.02971298,0.06548405,-0
 .00006461,-0.00008732,-0.00014294,0.00003631,0.00006958,0.00017120,-0.
 00005414,-0.00005949,-0.00003955,-0.00010234,-0.00000099,0.00004874,-0
 .00053844,-0.00005441,-0.00021854,0.00061198,0.00096899,0.00135918,-0.
 00012768,-0.00005236,0.00010462,0.00038326,-0.01296497,-0.00999158,0.0
 0034980,0.00099077,0.00116101,-0.09338592,-0.08265103,0.01954879,-0.00
 001869,0.00017442,0.00003780,0.00004623,0.00000729,0.00000327,-0.00002
 024,0.00004380,0.00002271,0.00000724,0.00002134,0.00001453,0.00003860,
 0.00005338,0.00004824,0.00012917,-0.00000818,-0.00009510,0.00011951,0.
 00008839,0.00005618,-0.01842826,-0.01492471,0.00768832,0.10514897,-0.0
 0013653,0.00017688,0.00025285,0.00023941,-0.00022190,-0.00036917,0.000
 02144,-0.00007326,-0.00001852,-0.00009114,-0.00003726,0.00018573,-0.00
 004618,-0.00015409,0.00005230,0.00100289,0.00040861,-0.00076320,-0.000
 22181,-0.00013496,0.00002418,-0.01594002,-0.02545373,-0.01260420,0.001
 52639,0.00051742,-0.00020565,-0.08541412,-0.15143423,0.02237691,0.0001
 7429,-0.00009726,0.00008547,0.00001237,-0.00001844,-0.00002909,-0.0001
 1464,0.00010721,-0.00000054,0.00000397,0.00004800,-0.00003828,0.000052
 40,0.00003554,-0.00004006,-0.00003508,0.00002983,-0.00006999,0.0000032
 5,0.00019698,-0.00002778,-0.00232971,0.00467827,0.00068497,0.10726272,
 0.18684298,-0.00003189,0.00003143,-0.00009691,0.00005000,-0.00003680,0
 .00010568,0.00002116,-0.00002359,-0.00007100,-0.00004487,0.00003575,-0
 .00002250,0.00017446,0.00008271,-0.00006869,0.00048557,0.00072812,-0.0
 0146963,-0.00029661,0.00003450,0.00018598,-0.01185548,-0.02365828,0.00
 089819,-0.00066601,0.00060467,-0.00390342,0.01865696,0.02219963,-0.034
 84257,0.00009120,-0.00005252,-0.00004869,-0.00000219,-0.00001080,0.000
 00484,-0.00008750,0.00007068,0.00002624,0.00001184,-0.00001359,-0.0000
 1512,0.00002037,-0.00001436,0.00000654,-0.00003407,-0.00006359,-0.0000
 1313,0.00003790,-0.00018008,-0.00010265,0.00652591,0.00430146,0.001779
 31,-0.01873764,-0.02083997,0.04240285,-0.00003854,-0.00018385,-0.00034
 281,-0.00002969,0.00016264,0.00041129,-0.00006917,-0.00005422,-0.00006
 463,-0.00008861,0.00002149,0.00000807,-0.00051676,-0.00003453,-0.00029
 744,0.00048993,0.00131135,0.00121338,-0.00008490,0.00007037,0.00024932
 ,0.00230596,-0.00418321,-0.01316876,0.00008795,0.00056477,0.00107034,-
 0.06789395,0.04221623,-0.05617893,0.00006820,0.00035448,-0.00013106,0.
 00005803,0.00001579,0.00000900,-0.00001271,0.00003756,0.00003404,0.000
 00346,0.00000694,0.00001973,0.00002525,0.00002895,0.00006153,0.0001356
 0,0.00000069,-0.00010217,0.00008037,0.00000455,0.00002258,-0.01392933,
 0.01453243,-0.01279285,0.00626577,-0.00554128,0.00552497,0.07388390,-0
 .00011235,0.00006647,0.00034564,0.00014479,-0.00011329,-0.00042566,-0.
 00000291,-0.00000334,0.00006080,0.00002362,-0.00004047,0.00004501,-0.0
 0000274,-0.00006687,0.00015238,0.00015627,-0.00152191,-0.00013755,0.00
 031300,-0.00002736,-0.00053094,-0.00369036,0.01076668,-0.00895007,-0.0
 0157119,-0.00321854,-0.00150311,0.04257205,-0.07667519,0.06814218,0.00
 009639,-0.00002575,0.00000316,-0.00000050,0.00000569,-0.00002396,0.000
 01674,-0.00000449,-0.00002901,0.00000086,0.00001629,-0.00000948,0.0000
 1294,0.00001714,-0.00001962,-0.00004063,0.00003596,0.00002664,-0.00002
 875,0.00008806,0.00004222,0.00866166,-0.00253167,0.00516666,0.00242420
 ,-0.01512407,0.01675827,-0.04855114,0.08865473,-0.00008881,0.00013133,
 -0.00008508,0.00016005,-0.00014395,0.00005032,0.00004300,-0.00008366,-
 0.00012590,-0.00010639,-0.00001831,0.00020963,-0.00043443,0.00017836,0
 .00009568,0.00091482,-0.00112100,-0.00007257,0.00012899,-0.00038317,-0
 .00009340,-0.01470997,0.00256257,-0.03718308,0.00055619,-0.00199987,0.
 00012237,-0.05913097,0.06833503,-0.13516632,0.00017918,-0.00019855,0.0
 0016404,0.00000916,-0.00002613,-0.00000390,-0.00018159,0.00015263,0.00
 004248,-0.00000405,0.00003065,-0.00002856,0.00005722,0.00000795,-0.000
 01280,-0.00002215,-0.00005511,-0.00010520,0.00002936,0.00005780,-0.000
 04568,-0.00209845,0.00058889,0.00465779,-0.00058919,0.01128827,-0.0044
 9523,0.07488395,-0.07922371,0.17291191,-0.00004345,0.00123386,0.000581
 22,0.00026508,-0.00104867,-0.00118029,0.00040524,0.00017944,0.00005042
 ,0.00040700,-0.00012323,0.00091510,0.00051823,-0.00098209,-0.02164101,
 -0.15242350,-0.10011786,-0.02411431,-0.01375780,-0.01858668,-0.0070389
 2,-0.04486768,-0.01074339,-0.00827727,-0.00606640,0.00349704,0.0005584
 2,-0.00145023,0.00222221,0.00236609,-0.00928306,0.01557829,-0.02835269
 ,-0.00026229,-0.00005545,-0.00002028,-0.00013738,0.00001329,-0.0000632
 5,-0.00002916,0.00010194,-0.00007682,-0.00016272,-0.00010371,-0.000614
 34,-0.00057073,-0.00008635,0.00118097,-0.00023166,0.00042844,-0.000445
 73,0.00004262,-0.00046581,-0.00064658,-0.00040617,-0.00005231,0.000178
 59,-0.00022236,0.00005375,-0.00017444,0.26044884,0.00055184,-0.0014178
 1,-0.00006642,-0.00050564,0.00057350,0.00057170,0.00004945,0.00015298,
 -0.00013694,0.00042475,-0.00056550,-0.00132595,0.00385698,0.00646942,-
 0.00672833,-0.09690075,-0.11358191,-0.00698852,-0.03134873,-0.02634436
 ,-0.01255020,-0.00199397,0.00344882,-0.00223778,0.00006221,0.00062651,
 0.00073499,0.00263718,0.00063695,0.00105701,0.01210972,-0.02659981,0.0
 3879986,-0.00010002,0.00003556,0.00010144,0.00021343,-0.00018984,-0.00
 001284,-0.00003767,-0.00003098,-0.00002193,0.00008729,-0.00029509,-0.0
 0003902,-0.00041184,-0.00035576,0.00200455,0.00007466,0.00012726,0.000
 01092,0.00013527,0.00005770,0.00006566,-0.00087423,-0.00029754,-0.0001
 9291,-0.00086199,0.00008871,-0.00003764,0.10327655,0.22776894,-0.00015
 654,-0.00034668,-0.00045694,0.00017500,0.00017271,0.00057933,-0.000081
 32,-0.00029953,-0.00031086,-0.00033706,-0.00129752,-0.00175523,-0.0204
 2265,-0.01110440,-0.03686146,-0.03270549,-0.01685474,-0.04687320,-0.00
 066238,-0.00383396,0.00408020,-0.00790173,0.00379867,0.00538726,0.0014
 8860,-0.00040365,0.00076105,0.00236418,-0.00062456,-0.00097189,-0.0152
 1556,0.02404398,-0.00931813,0.00001955,-0.00002964,0.00000063,-0.00029
 904,0.00027812,0.00010183,-0.00012069,0.00011871,-0.00003032,0.0004685
 2,0.00010454,0.00025695,-0.00016383,0.00071692,-0.00252457,-0.00032846
 ,0.00082664,-0.00035222,0.00008407,0.00009416,0.00011430,-0.00003588,0
 .00001163,-0.00008170,0.00023034,-0.00028571,-0.00001012,0.09865339,-0
 .08452975,0.29338918,0.00109515,0.00090469,0.00128765,-0.00058618,0.00
 000815,-0.00081446,0.00015071,0.00020218,0.00035492,0.00034846,0.00028
 605,0.00019590,-0.00351734,-0.00162347,-0.00186661,-0.01470626,0.01084
 814,-0.03852804,0.00088976,-0.00005985,0.00099257,0.00017987,-0.000259
 24,-0.00081274,-0.00113377,-0.00012950,-0.00014647,-0.00229560,0.00206
 602,-0.00022738,-0.09053419,0.10136597,0.05224699,-0.00013040,0.000014
 04,0.00001548,0.00033536,-0.00038309,-0.00015304,-0.00007053,-0.000052
 99,0.00000950,-0.00027161,-0.00019226,-0.00025571,0.00038758,0.0001418
 4,-0.00078494,-0.00015723,-0.00028663,0.00015394,0.00014969,-0.0001174
 3,-0.00005925,-0.00002928,-0.00030705,-0.00006556,-0.00061314,-0.00036
 576,0.00053209,-0.03187684,0.00945043,-0.02529094,0.14261200,0.0001068
 7,-0.00224902,-0.00357544,-0.00029239,0.00039586,0.00277061,-0.0000328
 0,-0.00020021,-0.00050977,-0.00030029,0.00016295,0.00006438,-0.0021925
 7,-0.00069580,-0.00375290,0.01375451,0.01414767,-0.00839950,0.00004179
 ,-0.00174701,0.00036016,-0.00149832,0.00116264,0.00167138,0.00126844,-
 0.00016089,0.00013166,0.00164693,0.00034934,-0.00064629,0.10387856,-0.
 11973870,-0.05888350,0.00011160,0.00001253,0.00004473,-0.00037906,0.00
 033159,0.00023029,-0.00002663,-0.00001139,-0.00000473,0.00004461,-0.00
 012782,0.00003571,0.00004154,0.00004020,-0.00064063,-0.00023491,-0.000
 31792,-0.00030914,-0.00012847,-0.00008658,0.00013679,-0.00036522,-0.00
 005224,0.00027684,0.00019752,-0.00048378,0.00000273,0.00540966,-0.0702
 3876,0.08969734,-0.12181210,0.18019984,0.00029209,-0.00084937,0.000008
 83,-0.00040293,0.00009189,-0.00024525,-0.00010657,0.00014498,0.0003601
 3,0.00016045,0.00017596,-0.00008710,-0.00622607,-0.00218552,-0.0017330
 9,-0.03456792,-0.00792344,-0.04756541,-0.00070492,-0.00011180,-0.00035
 871,0.00337106,-0.00216156,-0.00176897,-0.00057638,0.00037886,0.000368
 23,0.00024885,0.00077947,0.00209528,0.03768244,-0.04166467,-0.06085141
 ,0.00001135,0.00007856,0.00000447,0.00049988,-0.00042947,-0.00010675,-
 0.00005659,-0.00006001,0.00015373,-0.00023790,-0.00000723,0.00006383,0
 .00072198,0.00019193,-0.00107782,0.00008396,-0.00059155,0.00041185,-0.
 00001846,0.00001615,-0.00002539,-0.00037132,-0.00009756,-0.00017475,-0
 .00054679,0.00027851,-0.00086903,-0.01217476,0.07170285,-0.20506151,0.
 01308116,-0.01798940,0.31658168,-0.00348828,0.00992173,0.00615199,0.00
 566075,-0.02618896,0.02873055,-0.05478462,0.05944886,0.08060279,0.0048
 8197,-0.00468077,-0.00567927,-0.00100212,-0.00249313,0.00018576,0.0004
 2627,0.00007472,0.00011338,0.00006773,-0.00018510,0.00032386,-0.000568
 83,0.00044114,0.00059661,0.00031780,-0.00012315,-0.00028352,0.00017194
 ,-0.00024480,-0.00047377,0.00015893,-0.00059218,-0.00015513,0.00201333
 ,-0.00325716,-0.00534301,0.02403202,-0.02594995,-0.04307262,0.00020126
 ,0.00074649,-0.00079202,0.00048958,0.00020961,0.00034539,-0.00039722,0
 .00013122,-0.00017408,0.00046779,0.00009177,-0.00026329,-0.00007057,-0
 .00000156,0.00003147,0.00002172,0.00005249,0.00006192,0.00003085,-0.00
 003365,0.00011842,-0.00000596,-0.00009767,0.00022205,-0.00024338,0.000
 40283,-0.00034294,0.05899468,0.00869329,-0.00524699,-0.00713176,-0.007
 46126,0.01229598,-0.03044337,0.04448100,-0.04964084,-0.06808812,-0.002
 54762,0.00297356,0.00320604,0.00081501,0.00177906,-0.00003081,-0.00034
 944,-0.00005889,-0.00011392,-0.00011124,0.00012635,-0.00025091,0.00031
 759,-0.00033010,-0.00039284,-0.00018920,0.00012772,0.00019434,-0.00004
 326,0.00017940,0.00031734,-0.00017356,0.00042712,0.00013025,-0.0028414
 2,0.00364483,0.00602983,-0.01723043,0.01989857,0.03760556,-0.00029016,
 -0.00033201,0.00056230,-0.00052871,-0.00010914,-0.00023127,0.00024045,
 -0.00016871,0.00010234,-0.00033127,-0.00006706,0.00017537,0.00003957,-
 0.00000711,-0.00002265,-0.00003553,-0.00003911,-0.00003975,-0.00004419
 ,0.00001991,-0.00007809,0.00006466,0.00006884,-0.00016851,0.00023373,-
 0.00030285,0.00022599,-0.05070332,0.05459603,0.00059549,0.00132147,0.0
 0387745,0.03196917,-0.05616838,-0.07231174,-0.01296191,0.02576590,0.04
 029479,0.00376468,-0.00290303,-0.00501308,-0.00076036,-0.00202100,0.00
 022825,0.00034322,-0.00010468,0.00007834,0.00002331,-0.00004309,0.0002
 6726,-0.00088488,0.00036226,0.00034300,0.00057638,-0.00008028,-0.00007
 391,0.00019932,-0.00024889,-0.00038726,0.00018446,-0.00030390,-0.00001
 117,0.00166205,-0.00281321,-0.00440077,0.04855814,-0.03992282,-0.03504
 696,0.00008644,0.00085617,-0.00056873,0.00034976,0.00027237,0.00022803
 ,-0.00031738,0.00013305,-0.00017738,0.00037765,0.00009389,-0.00023430,
 -0.00007423,0.00001236,0.00003000,0.00002030,0.00007040,0.00005226,0.0
 0001728,-0.00001059,0.00011085,0.00008465,-0.00008146,0.00016810,-0.00
 021992,0.00024691,-0.00028275,-0.07194037,0.03222456,0.28196624,-0.004
 90107,0.01465920,0.04777381,-0.12911674,0.10472479,0.00323628,-0.03356
 345,0.05193489,0.00329051,-0.00147267,-0.00146754,-0.00365531,-0.00045
 153,0.00049890,-0.00039658,0.00011055,0.00028382,0.00004548,0.00034168
 ,-0.00047844,0.00007349,0.00104055,-0.00028683,-0.00010200,-0.00062929
 ,0.00006397,-0.00013426,-0.00034413,0.00034474,0.00021058,-0.00012374,
 -0.00078637,-0.00058045,0.00109526,-0.00037283,-0.00234868,0.01253127,
 -0.01265702,-0.01978043,-0.00015593,0.00053879,0.00013945,-0.00046773,
 -0.00042837,0.00031463,0.00011923,-0.00007471,0.00009411,0.00003679,-0
 .00012156,0.00009490,0.00007981,-0.00004543,-0.00001405,0.00001620,-0.
 00012241,-0.00002085,0.00006330,-0.00007536,-0.00007299,-0.00030634,0.
 00019682,0.00001677,0.00002800,0.00035385,0.00017443,-0.03729449,0.027
 82174,-0.00166427,0.19339767,0.01516942,-0.00850786,-0.05275075,0.0983
 1742,-0.13033147,0.00043228,0.05043368,-0.03771098,-0.00425678,-0.0007
 6286,0.00260640,0.00327886,0.00070152,0.00034426,0.00015877,-0.0002030
 9,-0.00036508,-0.00007966,-0.00030970,0.00058266,-0.00016202,-0.000937
 34,0.00014391,-0.00012356,0.00060958,-0.00001382,0.00025658,0.00029019
 ,-0.00023429,-0.00004457,-0.00004484,0.00076798,0.00047975,0.00068159,
 -0.00177287,0.00358987,-0.02222073,0.01493488,0.01907099,0.00006341,-0
 .00038530,0.00012851,-0.00007683,0.00022735,-0.00042222,0.00001668,0.0
 0005375,-0.00004569,-0.00020853,0.00008046,0.00000734,-0.00005979,0.00
 004260,0.00000526,-0.00002805,0.00009590,0.00000136,-0.00007237,0.0000
 7794,0.00003344,0.00029771,-0.00013953,-0.00008400,0.00007945,-0.00039
 570,-0.00000851,0.04297560,-0.03969736,0.04340912,-0.18453116,0.199274
 30,0.03556301,-0.04499639,-0.07525625,0.02820208,0.00434442,-0.0285943
 1,-0.01765534,0.00478854,-0.01162351,-0.00469161,-0.00039748,0.0066012
 4,0.00059641,0.00239853,-0.00029764,-0.00042364,-0.00045695,-0.0000998
 0,-0.00046937,0.00071157,-0.00048783,-0.00052031,-0.00016047,-0.000546
 36,0.00031219,0.00009721,0.00045185,0.00024269,-0.00010001,0.00034657,
 -0.00014598,0.00171663,0.00068169,-0.00084016,0.00261320,0.00132540,-0
 .02495448,0.01905028,-0.00401888,0.00016278,-0.00131167,-0.00003909,-0
 .00023514,-0.00028900,-0.00087482,0.00019332,-0.00012204,0.00007174,-0
 .00044745,-0.00000336,0.00018863,-0.00001206,0.00004614,-0.00002909,-0
 .00006225,0.00007147,-0.00005591,-0.00013064,0.00012837,-0.00007010,0.
 00029364,-0.00007999,-0.00021721,0.00036101,-0.00097713,0.00016515,0.0
 1133643,0.02598368,-0.20904814,-0.02653461,-0.01305473,0.32155080\\-0.
 00000007,0.00000012,0.00000111,0.00000023,0.00000007,-0.00000078,-0.00
 000045,-0.00000036,-0.00000006,0.00000031,0.00000019,-0.00000004,-0.00
 000042,0.00000027,-0.00000050,-0.00000010,-0.00000021,0.00000036,-0.00
 000002,-0.00000024,0.00000011,-0.00000057,-0.00000013,-0.00000040,0.00
 000018,0.00000003,0.00000012,0.00000016,-0.00000008,0.00000041,0.00000
 022,-0.00000023,-0.00000012,0.,-0.00000003,0.,0.00000006,0.00000002,-0
 .00000023,0.00000004,0.00000005,-0.00000022,0.00000012,0.00000002,0.00
 000001,-0.00000015,-0.00000005,-0.00000002,0.00000005,0.00000026,-0.00
 000006,-0.00000007,0.00000011,0.00000004,0.,0.00000012,0.00000002,-0.0
 0000004,0.00000010,-0.00000008,0.00000044,0.00000015,0.00000029,-0.000
 00023,0.00000034,0.00000008,0.00000026,0.,0.00000025,0.00000006,-0.000
 00052,-0.00000028\\\@


 A MATHEMATICIAN IS A MACHINE FOR TURNING COFFEE INTO THEOREMS.
     -- QUOTED BY PAUL ERDOS
 Job cpu time:       0 days  0 hours  0 minutes  2.1 seconds.
 File lengths (MBytes):  RWF=     80 Int=      0 D2E=      0 Chk=      2 Scr=      1
 Normal termination of Gaussian 09 at Sat Feb  6 23:47:57 2021.
