24
Properties=species:S:1:pos:R:3 energy=-19715.04685912866 pbc="F F F"
O       -6.66627200       3.60307000       1.52103900
C       -6.04762200       4.05627500       2.46393900
C       -5.07660800       3.40298900       3.33140300
C       -5.03390500       1.93173000       3.41127500
C       -3.72705400       1.36036600       2.83938800
C       -3.62485900       1.58566200       1.32802400
H       -3.71784300       2.66292500       1.05600100
C       -2.29591100       1.05193600       0.75567400
O       -1.25910100       1.27222900       1.33938300
C       -2.38877300       0.30280500      -0.52894600
H       -6.04714800       2.08091000       0.17452700
H       -4.37717600       4.00693200       3.89833000
H       -5.77391200       6.86757000       3.67285700
H       -5.13860000       1.61879400       4.47654900
H       -5.89473400       1.46527900       2.87453900
H       -2.83765900       1.80799500       3.33311200
H       -3.68036800       0.27364000       3.05976800
H       -1.40693300       0.17377700      -1.00323800
H       -2.82167900      -0.69804100      -0.36863300
H       -3.06702300       0.79802100      -1.24482200
O       -4.73635400       0.84746500       0.74674200
O       -5.26099900       1.64022000      -0.29865800
O       -5.60807300       5.88246700       3.81049200
O       -6.35097500       5.41743600       2.67981200
