 Entering Gaussian System, Link 0=g09
 Initial command:
 /apps/applications/gaussian/G09.D01/2/default/g09/l1.exe "/nobackup/chmrsh/Scratch/Gau-21215.inp" -scrdir="/nobackup/chmrsh/Scratch/"
 Entering Link 1 = /apps/applications/gaussian/G09.D01/2/default/g09/l1.exe PID=     21216.
  
 Copyright (c) 1988,1990,1992,1993,1995,1998,2003,2009,2013,
            Gaussian, Inc.  All Rights Reserved.
  
 This is part of the Gaussian(R) 09 program.  It is based on
 the Gaussian(R) 03 system (copyright 2003, Gaussian, Inc.),
 the Gaussian(R) 98 system (copyright 1998, Gaussian, Inc.),
 the Gaussian(R) 94 system (copyright 1995, Gaussian, Inc.),
 the Gaussian 92(TM) system (copyright 1992, Gaussian, Inc.),
 the Gaussian 90(TM) system (copyright 1990, Gaussian, Inc.),
 the Gaussian 88(TM) system (copyright 1988, Gaussian, Inc.),
 the Gaussian 86(TM) system (copyright 1986, Carnegie Mellon
 University), and the Gaussian 82(TM) system (copyright 1983,
 Carnegie Mellon University). Gaussian is a federally registered
 trademark of Gaussian, Inc.
  
 This software contains proprietary and confidential information,
 including trade secrets, belonging to Gaussian, Inc.
  
 This software is provided under written license and may be
 used, copied, transmitted, or stored only in accord with that
 written license.
  
 The following legend is applicable only to US Government
 contracts under FAR:
  
                    RESTRICTED RIGHTS LEGEND
  
 Use, reproduction and disclosure by the US Government is
 subject to restrictions as set forth in subparagraphs (a)
 and (c) of the Commercial Computer Software - Restricted
 Rights clause in FAR 52.227-19.
  
 Gaussian, Inc.
 340 Quinnipiac St., Bldg. 40, Wallingford CT 06492
  
  
 ---------------------------------------------------------------
 Warning -- This program may not be used in any manner that
 competes with the business of Gaussian, Inc. or will provide
 assistance to any competitor of Gaussian, Inc.  The licensee
 of this program is prohibited from giving any competitor of
 Gaussian, Inc. access to this program.  By using this program,
 the user acknowledges that Gaussian, Inc. is engaged in the
 business of creating and licensing software in the field of
 computational chemistry and represents and warrants to the
 licensee that it is not a competitor of Gaussian, Inc. and that
 it will not use this program in any manner prohibited above.
 ---------------------------------------------------------------
  

 Cite this work as:
 Gaussian 09, Revision D.01,
 M. J. Frisch, G. W. Trucks, H. B. Schlegel, G. E. Scuseria, 
 M. A. Robb, J. R. Cheeseman, G. Scalmani, V. Barone, B. Mennucci, 
 G. A. Petersson, H. Nakatsuji, M. Caricato, X. Li, H. P. Hratchian, 
 A. F. Izmaylov, J. Bloino, G. Zheng, J. L. Sonnenberg, M. Hada, 
 M. Ehara, K. Toyota, R. Fukuda, J. Hasegawa, M. Ishida, T. Nakajima, 
 Y. Honda, O. Kitao, H. Nakai, T. Vreven, J. A. Montgomery, Jr., 
 J. E. Peralta, F. Ogliaro, M. Bearpark, J. J. Heyd, E. Brothers, 
 K. N. Kudin, V. N. Staroverov, T. Keith, R. Kobayashi, J. Normand, 
 K. Raghavachari, A. Rendell, J. C. Burant, S. S. Iyengar, J. Tomasi, 
 M. Cossi, N. Rega, J. M. Millam, M. Klene, J. E. Knox, J. B. Cross, 
 V. Bakken, C. Adamo, J. Jaramillo, R. Gomperts, R. E. Stratmann, 
 O. Yazyev, A. J. Austin, R. Cammi, C. Pomelli, J. W. Ochterski, 
 R. L. Martin, K. Morokuma, V. G. Zakrzewski, G. A. Voth, 
 P. Salvador, J. J. Dannenberg, S. Dapprich, A. D. Daniels, 
 O. Farkas, J. B. Foresman, J. V. Ortiz, J. Cioslowski, 
 and D. J. Fox, Gaussian, Inc., Wallingford CT, 2013.
 
 ******************************************
 Gaussian 09:  ES64L-G09RevD.01 24-Apr-2013
                 7-Jan-2021 
 ******************************************
 ----------------------------------------------------------------------
 #P b3lyp/3-21G scf=qc opt(calcall, ts, noeigentest, cartesian,maxcycle
 =100)
 ----------------------------------------------------------------------
 1/5=1,6=100,10=4,11=1,14=-1,18=10,26=3,38=1/1,3;
 2/12=2,17=6,18=5,29=2,40=1/2;
 3/5=5,11=2,16=1,25=1,30=1,71=2,74=-5,140=1/1,2,3;
 4//1;
 5/5=2,8=3,38=5/8;
 8/6=4,10=90,11=11/1;
 11/6=1,8=1,9=11,15=111,16=1/1,2,10;
 10/6=1/2;
 6/7=2,8=2,9=2,10=2,18=1,28=1/1;
 7/7=1,10=1,25=1/1,2,3,16;
 1/5=1,6=100,10=4,11=1,14=-1,18=10,26=3/3(3);
 2/29=1/2;
 7/7=1,8=1,9=1,25=1,44=-1/16;
 99/12=1/99;
 2/29=1/2;
 3/5=5,11=2,16=1,25=1,30=1,71=2,74=-5,140=1/1,2,3;
 4/5=5,16=3,69=1/1;
 5/5=2,8=3,38=5/8;
 8/6=4,10=90,11=11/1;
 11/6=1,8=1,9=11,15=111,16=1/1,2,10;
 10/6=1/2;
 7/7=1,10=1,25=1/1,2,3,16;
 1/5=1,6=100,10=4,11=1,14=-1,18=10,26=3/3(-8);
 2/29=1/2;
 6/7=2,8=2,9=2,10=2,18=1,19=2,28=1/1;
 7/7=1,8=1,9=1,25=1,44=-1/16;
 99/12=1/99;
 Leave Link    1 at Thu Jan  7 21:51:26 2021, MaxMem=           0 cpu:         0.1
 (Enter /apps/applications/gaussian/G09.D01/2/default/g09/l101.exe)
 ------------------------------
 Gaussian input prepared by ASE
 ------------------------------
 Symbolic Z-matrix:
 Charge =  0 Multiplicity = 2
 C                     0.42383  -0.63761   0.62745 
 C                    -0.33518   0.11689  -0.39845 
 H                     1.24902  -1.25527   0.32027 
 H                    -0.07786  -0.95105   1.5257 
 H                     0.97418   0.67285   0.90253 
 C                     0.17412   1.30984  -0.1389 
 H                     0.24648   2.32843  -0.31631 
 O                    -1.25122  -0.30387  -1.3006 
 H                    -1.40337  -1.28021  -1.22168 
 
 NAtoms=      9 NQM=        9 NQMF=       0 NMMI=      0 NMMIF=      0
                NMic=       0 NMicF=      0.
                    Isotopes and Nuclear Properties:
 (Nuclear quadrupole moments (NQMom) in fm**2, nuclear magnetic moments (NMagM)
  in nuclear magnetons)

  Atom         1           2           3           4           5           6           7           8           9
 IAtWgt=          12          12           1           1           1          12           1          16           1
 AtmWgt=  12.0000000  12.0000000   1.0078250   1.0078250   1.0078250  12.0000000   1.0078250  15.9949146   1.0078250
 NucSpn=           0           0           1           1           1           0           1           0           1
 AtZEff=   0.0000000   0.0000000   0.0000000   0.0000000   0.0000000   0.0000000   0.0000000   0.0000000   0.0000000
 NQMom=    0.0000000   0.0000000   0.0000000   0.0000000   0.0000000   0.0000000   0.0000000   0.0000000   0.0000000
 NMagM=    0.0000000   0.0000000   2.7928460   2.7928460   2.7928460   0.0000000   2.7928460   0.0000000   2.7928460
 AtZNuc=   6.0000000   6.0000000   1.0000000   1.0000000   1.0000000   6.0000000   1.0000000   8.0000000   1.0000000
 Leave Link  101 at Thu Jan  7 21:51:26 2021, MaxMem=    33554432 cpu:         0.1
 (Enter /apps/applications/gaussian/G09.D01/2/default/g09/l103.exe)

 GradGradGradGradGradGradGradGradGradGradGradGradGradGradGradGradGradGrad
 Berny optimization.
 Initialization pass.
 No Z-matrix variables, so optimization will use Cartesian coordinates.
 Trust Radius=3.00D-01 FncErr=1.00D-07 GrdErr=1.00D-06
 Number of steps in this run=    100 maximum allowed number of steps=    100.
 Search for a saddle point of order  1.
 GradGradGradGradGradGradGradGradGradGradGradGradGradGradGradGradGradGrad

 Leave Link  103 at Thu Jan  7 21:51:26 2021, MaxMem=    33554432 cpu:         0.0
 (Enter /apps/applications/gaussian/G09.D01/2/default/g09/l202.exe)
 ---------------------------------------------------------------------------------------------------
                            Z-MATRIX (ANGSTROMS AND DEGREES)
   CD    Cent   Atom    N1       Length/X        N2       Alpha/Y        N3        Beta/Z          J
 ---------------------------------------------------------------------------------------------------
      1      1  C        0   0.423829         -0.637614          0.627446
      2      2  C        0  -0.335181          0.116888         -0.398451
      3      3  H        0   1.249024         -1.255266          0.320273
      4      4  H        0  -0.077857         -0.951046          1.525705
      5      5  H        0   0.974181          0.672849          0.902527
      6      6  C        0   0.174120          1.309842         -0.138898
      7      7  H        0   0.246477          2.328431         -0.316313
      8      8  O        0  -1.251225         -0.303872         -1.300604
      9      9  H        0  -1.403368         -1.280211         -1.221684
 ---------------------------------------------------------------------------------------------------
                         Z-Matrix orientation:                         
 ---------------------------------------------------------------------
 Center     Atomic      Atomic             Coordinates (Angstroms)
 Number     Number       Type             X           Y           Z
 ---------------------------------------------------------------------
      1          6           0        0.423829   -0.637614    0.627446
      2          6           0       -0.335181    0.116888   -0.398451
      3          1           0        1.249024   -1.255266    0.320273
      4          1           0       -0.077857   -0.951046    1.525705
      5          1           0        0.974181    0.672849    0.902527
      6          6           0        0.174120    1.309842   -0.138898
      7          1           0        0.246477    2.328431   -0.316313
      8          8           0       -1.251225   -0.303872   -1.300604
      9          1           0       -1.403368   -1.280211   -1.221684
 ---------------------------------------------------------------------
                    Distance matrix (angstroms):
                    1          2          3          4          5
     1  C    0.000000
     2  C    1.482510   0.000000
     3  H    1.075544   2.215644   0.000000
     4  H    1.075545   2.215643   1.818304   0.000000
     5  H    1.447712   1.927710   2.032778   2.032773   0.000000
     6  C    2.107659   1.322836   2.818872   2.818867   1.459597
     7  H    3.117621   2.288230   3.775345   3.775340   2.180843
     8  O    2.575765   1.352795   3.127880   3.127882   3.280275
     9  H    2.677847   1.941809   3.068132   3.068139   3.738911
                    6          7          8          9
     6  C    0.000000
     7  H    1.036453   0.000000
     8  O    2.446476   3.184488   0.000000
     9  H    3.220135   4.069888   0.991268   0.000000
 Stoichiometry    C3H5O(2)
 Framework group  C1[X(C3H5O)]
 Deg. of freedom    21
 Full point group                 C1      NOp   1
 Largest Abelian subgroup         C1      NOp   1
 Largest concise Abelian subgroup C1      NOp   1
                         Standard orientation:                         
 ---------------------------------------------------------------------
 Center     Atomic      Atomic             Coordinates (Angstroms)
 Number     Number       Type             X           Y           Z
 ---------------------------------------------------------------------
      1          6           0        0.915767   -0.953396    0.000000
      2          6           0       -0.133618    0.093804    0.000000
      3          1           0        1.120615   -1.490312   -0.909150
      4          1           0        1.120620   -1.490305    0.909153
      5          1           0        1.791184    0.199650   -0.000002
      6          6           0        0.675286    1.140499    0.000000
      7          1           0        0.842554    2.163366   -0.000001
      8          8           0       -1.482191   -0.012989    0.000001
      9          1           0       -1.762059   -0.963929   -0.000002
 ---------------------------------------------------------------------
 Rotational constants (GHZ):     13.1577687      8.1504244      5.2056097
 Leave Link  202 at Thu Jan  7 21:51:29 2021, MaxMem=    33554432 cpu:         0.0
 (Enter /apps/applications/gaussian/G09.D01/2/default/g09/l301.exe)
 Standard basis: 3-21G (6D, 7F)
 Ernie: Thresh=  0.10000D-02 Tol=  0.10000D-05 Strict=F.
 There are    46 symmetry adapted cartesian basis functions of A   symmetry.
 There are    46 symmetry adapted basis functions of A   symmetry.
    46 basis functions,    75 primitive gaussians,    46 cartesian basis functions
    16 alpha electrons       15 beta electrons
       nuclear repulsion energy       113.1733114425 Hartrees.
 IExCor=  402 DFT=T Ex+Corr=B3LYP ExCW=0 ScaHFX=  0.200000
 ScaDFX=  0.800000  0.720000  1.000000  0.810000 ScalE2=  1.000000  1.000000
 IRadAn=      0 IRanWt=     -1 IRanGd=            0 ICorTp=0 IEmpDi=  4
 NAtoms=    9 NActive=    9 NUniq=    9 SFac= 1.00D+00 NAtFMM=   60 NAOKFM=F Big=F
 Integral buffers will be    131072 words long.
 Raffenetti 2 integral format.
 Two-electron integral symmetry is turned on.
 Leave Link  301 at Thu Jan  7 21:51:29 2021, MaxMem=    33554432 cpu:         0.0
 (Enter /apps/applications/gaussian/G09.D01/2/default/g09/l302.exe)
 NPDir=0 NMtPBC=     1 NCelOv=     1 NCel=       1 NClECP=     1 NCelD=      1
         NCelK=      1 NCelE2=     1 NClLst=     1 CellRange=     0.0.
 One-electron integrals computed using PRISM.
 NBasis=    46 RedAO= T EigKep=  6.18D-03  NBF=    46
 NBsUse=    46 1.00D-06 EigRej= -1.00D+00 NBFU=    46
 Precomputing XC quadrature grid using
 IXCGrd= 4 IRadAn=           0 IRanWt=          -1 IRanGd=           0 AccXCQ= 0.00D+00.
 Generated NRdTot=       0 NPtTot=           0 NUsed=           0 NTot=          32
 NSgBfM=    46    46    46    46    46 MxSgAt=     9 MxSgA2=     9.
 Leave Link  302 at Thu Jan  7 21:51:30 2021, MaxMem=    33554432 cpu:         0.1
 (Enter /apps/applications/gaussian/G09.D01/2/default/g09/l303.exe)
 DipDrv:  MaxL=1.
 Leave Link  303 at Thu Jan  7 21:51:30 2021, MaxMem=    33554432 cpu:         0.0
 (Enter /apps/applications/gaussian/G09.D01/2/default/g09/l401.exe)
 ExpMin= 1.83D-01 ExpMax= 3.22D+02 ExpMxC= 3.22D+02 IAcc=1 IRadAn=         1 AccDes= 0.00D+00
 Harris functional with IExCor=  402 and IRadAn=       1 diagonalized for initial guess.
 HarFok:  IExCor=  402 AccDes= 0.00D+00 IRadAn=         1 IDoV= 1 UseB2=F ITyADJ=14
 ICtDFT=  3500011 ScaDFX=  1.000000  1.000000  1.000000  1.000000
 FoFCou: FMM=F IPFlag=           0 FMFlag=      100000 FMFlg1=           0
         NFxFlg=           0 DoJE=T BraDBF=F KetDBF=T FulRan=T
         wScrn=  0.000000 ICntrl=     500 IOpCl=  0 I1Cent=   200000004 NGrid=           0
         NMat0=    1 NMatS0=      1 NMatT0=    0 NMatD0=    1 NMtDS0=    0 NMtDT0=    0
 Petite list used in FoFCou.
 Harris En= -191.297835688247    
 JPrj=0 DoOrth=F DoCkMO=F.
 Initial guess <Sx>= 0.0000 <Sy>= 0.0000 <Sz>= 0.5000 <S**2>= 0.7500 S= 0.5000
 Leave Link  401 at Thu Jan  7 21:51:30 2021, MaxMem=    33554432 cpu:         0.2
 (Enter /apps/applications/gaussian/G09.D01/2/default/g09/l508.exe)
 Direct SCF.
 Tight linear equation convergence will be used.
 UB3LYP wavefunction.
 Quadratic Convergence SCF Method.
 Line search only if initial step raises energy.
 Integral symmetry usage will be decided dynamically.
 ReadGW:  IGet=1 IStart=         402 Next=         402 LGW=           0.
 Keep R1 and R2 ints in memory in canonical form, NReq=2054798.
 FoFCou: FMM=F IPFlag=           0 FMFlag=           0 FMFlg1=           0
         NFxFlg=           0 DoJE=F BraDBF=F KetDBF=F FulRan=T
         wScrn=  0.000000 ICntrl=     600 IOpCl=  0 I1Cent=           0 NGrid=           0
         NMat0=    1 NMatS0=   1081 NMatT0=    0 NMatD0=    1 NMtDS0=    0 NMtDT0=    0
 Symmetry not used in FoFCou.
 Iteration   1 EE= -191.198954581275                                    Grad=4.392D-01 Max rot=    3.7200 deg.
 Gradient too large for Newton-Raphson -- use scaled steepest descent instead.
 Alpha Gap=     0.176 HL deriv= 6.18D-08
  Beta Gap=     0.190 HL deriv= 1.10D-07
     ILin= 1 X=0.000D+00 Y=-1.911989545813D+02 DE= 0.00D+00 F= -4.18D-01
     ILin= 2 X=3.000D-01 Y=-1.912808125523D+02 DE=-8.19D-02 F= -1.28D-01
     ILin= 3 X=4.000D-01 Y=-1.912887646655D+02 DE=-8.98D-02 F= -3.14D-02
     ILin= 4 X=6.000D-01 Y=-1.912759599775D+02 DE=-7.70D-02 F=  1.59D-01
     An  expanding polynomial of degree  4 produced  0.4329
     Minimum is close to point  3 DX=  3.29D-02 DF= -5.18D-04 DXR=  7.60D-02 DFR=  5.77D-03 which will be used.
 Iteration   2 EE= -191.288764665459     Delta-E=       -0.089810084185 Grad=1.143D-01 Max rot=    1.0227 deg.
 Gradient too large for Newton-Raphson -- use scaled steepest descent instead.
 Alpha Gap=     0.215 HL deriv= 3.82D-08
  Beta Gap=     0.187 HL deriv= 1.43D-08
     ILin= 1 X=0.000D+00 Y=-1.912887646655D+02 DE= 0.00D+00 F= -2.38D-02
     ILin= 2 X=4.000D-01 Y=-1.912942380637D+02 DE=-5.47D-03 F= -3.59D-03
     ILin= 3 X=6.000D-01 Y=-1.912939522463D+02 DE=-5.19D-03 F=  6.43D-03
     An  expanding polynomial of degree  3 produced  0.4716
 Iteration   3 EE= -191.294366179659     Delta-E=       -0.005601514199 Grad=5.331D-02 Max rot=    0.6306 deg.
 Gradient too large for Newton-Raphson -- use scaled steepest descent instead.
 Alpha Gap=     0.213 HL deriv= 1.23D-08
  Beta Gap=     0.189 HL deriv= 5.05D-08
     ILin= 1 X=0.000D+00 Y=-1.912943661797D+02 DE= 0.00D+00 F= -5.01D-03
     ILin= 2 X=5.000D-01 Y=-1.912955162840D+02 DE=-1.15D-03 F=  4.02D-04
     Accept linear search using points  1 and  2.
     An  expanding polynomial of degree  2 produced  0.3322
 Iteration   4 EE= -191.295431843167     Delta-E=       -0.001065663509 Grad=3.061D-02 Max rot=    0.3863 deg.
 Gradient too large for Newton-Raphson -- use scaled steepest descent instead.
 Alpha Gap=     0.216 HL deriv= 4.13D-11
  Beta Gap=     0.188 HL deriv= 2.26D-08
     ILin= 1 X=0.000D+00 Y=-1.912954318432D+02 DE= 0.00D+00 F= -1.14D-03
     ILin= 2 X=4.000D-01 Y=-1.912958024822D+02 DE=-3.71D-04 F= -7.17D-04
     ILin= 3 X=8.000D-01 Y=-1.912960052126D+02 DE=-5.73D-04 F= -2.97D-04
     ILin= 4 X=1.600D+00 Y=-1.912959067229D+02 DE=-4.75D-04 F=  5.43D-04
     An  expanding polynomial of degree  4 produced  1.0828
 Iteration   5 EE= -191.296047191557     Delta-E=       -0.000615348390 Grad=8.967D-03 Max rot=    0.1796 deg.
 QCNR:  CnvC1=3.07D-09 CnvC2=3.07D-08
 LinEq1:  Iter=  0 NonCon=     1 RMS=4.94D-04 Max=1.15D-02 NDo=     1
 AX will form     1 AO Fock derivatives at one time.
 LinEq1:  Iter=  1 NonCon=     1 RMS=6.42D-04 Max=1.51D-02 NDo=     1
 LinEq1:  Iter=  2 NonCon=     1 RMS=2.35D-04 Max=2.66D-03 NDo=     1
 LinEq1:  Iter=  3 NonCon=     1 RMS=8.61D-05 Max=8.58D-04 NDo=     1
 LinEq1:  Iter=  4 NonCon=     1 RMS=5.85D-05 Max=6.09D-04 NDo=     1
 LinEq1:  Iter=  5 NonCon=     1 RMS=3.37D-05 Max=2.88D-04 NDo=     1
 LinEq1:  Iter=  6 NonCon=     1 RMS=1.62D-05 Max=1.61D-04 NDo=     1
 LinEq1:  Iter=  7 NonCon=     1 RMS=5.47D-06 Max=4.70D-05 NDo=     1
 LinEq1:  Iter=  8 NonCon=     1 RMS=2.11D-06 Max=2.77D-05 NDo=     1
 LinEq1:  Iter=  9 NonCon=     1 RMS=1.18D-06 Max=1.37D-05 NDo=     1
 LinEq1:  Iter= 10 NonCon=     1 RMS=2.62D-07 Max=2.41D-06 NDo=     1
 LinEq1:  Iter= 11 NonCon=     1 RMS=4.46D-08 Max=4.30D-07 NDo=     1
 LinEq1:  Iter= 12 NonCon=     1 RMS=7.52D-09 Max=4.68D-08 NDo=     1
 LinEq1:  Iter= 13 NonCon=     0 RMS=1.11D-09 Max=1.14D-08 NDo=     1
 Linear equations converged to 3.074D-09 3.074D-08 after    13 iterations.
 Angle between quadratic step and gradient=  57.96 degrees.
     ILin= 1 X=0.000D+00 Y=-1.912960471916D+02 DE= 0.00D+00 F= -2.19D-04
     ILin= 2 X=1.000D+00 Y=-1.912961567023D+02 DE=-1.10D-04 F=  4.17D-07
     Accept linear search using points  1 and  2.
     An  expanding polynomial of degree  2 produced  0.9981
     Minimum is close to point  2 DX= -1.89D-03 DF= -3.95D-10 DXR=  1.90D-03 DFR=  3.60D-06 which will be used.
 Iteration   6 EE= -191.296156702290     Delta-E=       -0.000109510733 Grad=3.308D-05 Max rot=    0.0007 deg.
 QCNR:  CnvC1=3.31D-10 CnvC2=3.31D-09
 LinEq1:  Iter=  0 NonCon=     1 RMS=1.67D-06 Max=2.29D-05 NDo=     1
 LinEq1:  Iter=  1 NonCon=     1 RMS=1.20D-06 Max=2.39D-05 NDo=     1
 LinEq1:  Iter=  2 NonCon=     1 RMS=9.89D-07 Max=2.44D-05 NDo=     1
 LinEq1:  Iter=  3 NonCon=     1 RMS=7.17D-07 Max=8.69D-06 NDo=     1
 LinEq1:  Iter=  4 NonCon=     1 RMS=2.79D-07 Max=3.24D-06 NDo=     1
 LinEq1:  Iter=  5 NonCon=     1 RMS=1.53D-07 Max=1.56D-06 NDo=     1
 LinEq1:  Iter=  6 NonCon=     1 RMS=8.26D-08 Max=8.42D-07 NDo=     1
 LinEq1:  Iter=  7 NonCon=     1 RMS=2.45D-08 Max=2.05D-07 NDo=     1
 LinEq1:  Iter=  8 NonCon=     1 RMS=1.34D-08 Max=1.11D-07 NDo=     1
 LinEq1:  Iter=  9 NonCon=     1 RMS=3.35D-09 Max=2.34D-08 NDo=     1
 LinEq1:  Iter= 10 NonCon=     1 RMS=6.93D-10 Max=7.62D-09 NDo=     1
 LinEq1:  Iter= 11 NonCon=     0 RMS=2.09D-10 Max=2.24D-09 NDo=     1
 Linear equations converged to 3.308D-10 3.308D-09 after    11 iterations.
 Angle between quadratic step and gradient=  54.66 degrees.
     ILin= 1 X=0.000D+00 Y=-1.912961567023D+02 DE= 0.00D+00 F= -3.51D-09
     ILin= 2 X=1.000D+00 Y=-1.912961567040D+02 DE=-1.75D-09
 Iteration   7 EE= -191.296156704044     Delta-E=       -0.000000001755 Grad=1.302D-09 Max rot=    0.0000 deg.
 Rotation gradient small -- convergence achieved.
 SCF Done:  E(UB3LYP) =  -191.296156704     a.u. after    7 cycles
            Convg  =    0.1302D-08                    39 Fock formations.
              S**2 =  0.7651                  -V/T =  2.0075
 <Sx>= 0.0000 <Sy>= 0.0000 <Sz>= 0.5000 <S**2>= 0.7651 S= 0.5075
 <L.S>= 0.000000000000E+00
 Annihilation of the first spin contaminant:
 S**2 before annihilation     0.7651,   after     0.7501
 Leave Link  508 at Thu Jan  7 21:51:58 2021, MaxMem=    33554432 cpu:        27.3
 (Enter /apps/applications/gaussian/G09.D01/2/default/g09/l801.exe)
 DoSCS=F DFT=T ScalE2(SS,OS)=  1.000000  1.000000
 Range of M.O.s used for correlation:     1    46
 NBasis=    46 NAE=    16 NBE=    15 NFC=     0 NFV=     0
 NROrb=     46 NOA=    16 NOB=    15 NVA=    30 NVB=    31
 Leave Link  801 at Thu Jan  7 21:51:58 2021, MaxMem=    33554432 cpu:         0.0
 (Enter /apps/applications/gaussian/G09.D01/2/default/g09/l1101.exe)
 Using compressed storage, NAtomX=     9.
 Will process     10 centers per pass.
 Leave Link 1101 at Thu Jan  7 21:51:58 2021, MaxMem=    33554432 cpu:         0.1
 (Enter /apps/applications/gaussian/G09.D01/2/default/g09/l1102.exe)
 Symmetrizing basis deriv contribution to polar:
 IMax=3 JMax=2 DiffMx= 0.00D+00
 Leave Link 1102 at Thu Jan  7 21:51:58 2021, MaxMem=    33554432 cpu:         0.0
 (Enter /apps/applications/gaussian/G09.D01/2/default/g09/l1110.exe)
 Forming Gx(P) for the SCF density, NAtomX=     9.
 Integral derivatives from FoFJK, PRISM(SPDF).
 Do as many integral derivatives as possible in FoFJK.
 G2DrvN: MDV=      33554256.
 G2DrvN: will do    10 centers at a time, making    1 passes.
 Calling FoFCou, ICntrl=  3107 FMM=F I1Cent=   0 AccDes= 0.00D+00.
 FoFJK:  IHMeth= 1 ICntrl=    3107 DoSepK=F KAlg= 0 I1Cent=   0 FoldK=F
 IRaf=         0 NMat=   1 IRICut=       1 DoRegI=T DoRafI=F ISym2E= 0.
 FoFCou: FMM=F IPFlag=           0 FMFlag=      100000 FMFlg1=           0
         NFxFlg=           0 DoJE=F BraDBF=F KetDBF=F FulRan=T
         wScrn=  0.000000 ICntrl=    3107 IOpCl=  1 I1Cent=           0 NGrid=           0
         NMat0=    1 NMatS0=      1 NMatT0=    0 NMatD0=    1 NMtDS0=    0 NMtDT0=    0
 Symmetry not used in FoFCou.
 End of G2Drv F.D. properties file   721 does not exist.
 End of G2Drv F.D. properties file   722 does not exist.
 End of G2Drv F.D. properties file   788 does not exist.
 Leave Link 1110 at Thu Jan  7 21:52:08 2021, MaxMem=    33554432 cpu:        10.2
 (Enter /apps/applications/gaussian/G09.D01/2/default/g09/l1002.exe)
 Minotr:  UHF open shell wavefunction.
          IDoAtm=111111111
          Direct CPHF calculation.
          Differentiating once with respect to electric field.
                with respect to dipole field.
          Differentiating once with respect to nuclear coordinates.
          Requested convergence is 1.0D-08 RMS, and 1.0D-07 maximum.
          Secondary convergence is 1.0D-12 RMS, and 1.0D-12 maximum.
          NewPWx=T KeepS1=F KeepF1=F KeepIn=T MapXYZ=F SortEE=F KeepMc=T.
          MDV=      33554246 using IRadAn=       2.
 Generate precomputed XC quadrature information.
 Keep R1 and R2 ints in memory in canonical form, NReq=2035813.
 FoFCou: FMM=F IPFlag=           0 FMFlag=           0 FMFlg1=           0
         NFxFlg=           0 DoJE=F BraDBF=F KetDBF=F FulRan=T
         wScrn=  0.000000 ICntrl=     600 IOpCl=  0 I1Cent=           0 NGrid=           0
         NMat0=    1 NMatS0=   1081 NMatT0=    0 NMatD0=    1 NMtDS0=    0 NMtDT0=    0
 Symmetry not used in FoFCou.
          Solving linear equations simultaneously, MaxMat=       0.
          There are    30 degrees of freedom in the 1st order CPHF.  IDoFFX=6 NUNeed=     3.
     27 vectors produced by pass  0 Test12= 3.15D-15 3.33D-09 XBig12= 8.60D+01 3.69D+00.
 AX will form    27 AO Fock derivatives at one time.
     27 vectors produced by pass  1 Test12= 3.15D-15 3.33D-09 XBig12= 9.05D+00 6.32D-01.
     27 vectors produced by pass  2 Test12= 3.15D-15 3.33D-09 XBig12= 1.26D-01 7.44D-02.
     27 vectors produced by pass  3 Test12= 3.15D-15 3.33D-09 XBig12= 4.23D-04 3.47D-03.
     27 vectors produced by pass  4 Test12= 3.15D-15 3.33D-09 XBig12= 9.83D-07 1.75D-04.
     27 vectors produced by pass  5 Test12= 3.15D-15 3.33D-09 XBig12= 3.30D-09 1.01D-05.
      8 vectors produced by pass  6 Test12= 3.15D-15 3.33D-09 XBig12= 7.19D-12 5.79D-07.
      2 vectors produced by pass  7 Test12= 3.15D-15 3.33D-09 XBig12= 1.29D-14 2.56D-08.
 InvSVY:  IOpt=1 It=  1 EMax= 8.88D-15
 Solved reduced A of dimension   172 with    30 vectors.
 FullF1:  Do perturbations    1 to     3.
 Isotropic polarizability for W=    0.000000       32.16 Bohr**3.
 End of Minotr F.D. properties file   721 does not exist.
 End of Minotr F.D. properties file   722 does not exist.
 End of Minotr F.D. properties file   788 does not exist.
 Leave Link 1002 at Thu Jan  7 21:52:19 2021, MaxMem=    33554432 cpu:        10.1
 (Enter /apps/applications/gaussian/G09.D01/2/default/g09/l601.exe)
 Copying SCF densities to generalized density rwf, IOpCl= 1 IROHF=0.

 **********************************************************************

            Population analysis using the SCF density.

 **********************************************************************

 Orbital symmetries:
 Alpha Orbitals:
       Occupied  (A) (A) (A) (A) (A) (A) (A) (A) (A) (A) (A) (A)
                 (A) (A) (A) (A)
       Virtual   (A) (A) (A) (A) (A) (A) (A) (A) (A) (A) (A) (A)
                 (A) (A) (A) (A) (A) (A) (A) (A) (A) (A) (A) (A)
                 (A) (A) (A) (A) (A) (A)
 Beta  Orbitals:
       Occupied  (A) (A) (A) (A) (A) (A) (A) (A) (A) (A) (A) (A)
                 (A) (A) (A)
       Virtual   (A) (A) (A) (A) (A) (A) (A) (A) (A) (A) (A) (A)
                 (A) (A) (A) (A) (A) (A) (A) (A) (A) (A) (A) (A)
                 (A) (A) (A) (A) (A) (A) (A)
 The electronic state is 2-A.
 Alpha  occ. eigenvalues --  -19.07453 -10.18865 -10.13180 -10.11392  -1.06661
 Alpha  occ. eigenvalues --   -0.82240  -0.66471  -0.58964  -0.52121  -0.45067
 Alpha  occ. eigenvalues --   -0.44998  -0.38926  -0.36687  -0.33272  -0.22573
 Alpha  occ. eigenvalues --   -0.16740
 Alpha virt. eigenvalues --    0.04718   0.05915   0.12567   0.15558   0.19413
 Alpha virt. eigenvalues --    0.21241   0.23933   0.35576   0.41642   0.69619
 Alpha virt. eigenvalues --    0.70201   0.73605   0.75704   0.79798   0.80718
 Alpha virt. eigenvalues --    0.85818   0.89076   0.90928   0.96517   1.02100
 Alpha virt. eigenvalues --    1.06505   1.12068   1.22410   1.43136   1.50755
 Alpha virt. eigenvalues --    1.60638   1.72702   1.87228   1.94866   3.19753
  Beta  occ. eigenvalues --  -19.07475 -10.19024 -10.12179 -10.10350  -1.06724
  Beta  occ. eigenvalues --   -0.80544  -0.64635  -0.58087  -0.50940  -0.44543
  Beta  occ. eigenvalues --   -0.44481  -0.36725  -0.36558  -0.32546  -0.21648
  Beta virt. eigenvalues --   -0.03588   0.05339   0.06108   0.13777   0.16387
  Beta virt. eigenvalues --    0.20515   0.21886   0.24503   0.36318   0.42777
  Beta virt. eigenvalues --    0.69999   0.71718   0.75489   0.76943   0.81122
  Beta virt. eigenvalues --    0.81434   0.86798   0.89565   0.92165   0.96601
  Beta virt. eigenvalues --    1.03051   1.06883   1.12862   1.22578   1.44391
  Beta virt. eigenvalues --    1.50612   1.60738   1.73826   1.88372   1.95593
  Beta virt. eigenvalues --    3.19801
          Condensed to atoms (all electrons):
               1          2          3          4          5          6
     1  C    5.869876   0.243239   0.341717   0.341717   0.128161  -0.344937
     2  C    0.243239   5.103283  -0.044118  -0.044118  -0.102411   0.390704
     3  H    0.341717  -0.044118   0.530323  -0.034055  -0.004255   0.000788
     4  H    0.341717  -0.044118  -0.034055   0.530322  -0.004255   0.000788
     5  H    0.128161  -0.102411  -0.004255  -0.004255   0.547921   0.225079
     6  C   -0.344937   0.390704   0.000788   0.000788   0.225079   5.712097
     7  H    0.010851  -0.040872  -0.000213  -0.000213  -0.004920   0.363799
     8  O   -0.048680   0.314243   0.000535   0.000535   0.003028  -0.064290
     9  H   -0.007327  -0.034368   0.000625   0.000625  -0.000274   0.006799
               7          8          9
     1  C    0.010851  -0.048680  -0.007327
     2  C   -0.040872   0.314243  -0.034368
     3  H   -0.000213   0.000535   0.000625
     4  H   -0.000213   0.000535   0.000625
     5  H   -0.004920   0.003028  -0.000274
     6  C    0.363799  -0.064290   0.006799
     7  H    0.481192  -0.000797  -0.000035
     8  O   -0.000797   8.111085   0.257564
     9  H   -0.000035   0.257564   0.412585
          Atomic-Atomic Spin Densities.
               1          2          3          4          5          6
     1  C    0.992889   0.005005  -0.026661  -0.026661  -0.041241  -0.271259
     2  C    0.005005  -0.115227   0.000765   0.000765   0.004602  -0.052625
     3  H   -0.026661   0.000765  -0.016139   0.006318   0.003161   0.008432
     4  H   -0.026661   0.000765   0.006318  -0.016139   0.003161   0.008432
     5  H   -0.041241   0.004602   0.003161   0.003161  -0.119753   0.034879
     6  C   -0.271259  -0.052625   0.008432   0.008432   0.034879   0.967874
     7  H    0.008675   0.003717  -0.000140  -0.000140  -0.002610  -0.034649
     8  O   -0.001021   0.014498  -0.000021  -0.000021  -0.000299  -0.002197
     9  H   -0.000023   0.000465  -0.000043  -0.000043   0.000031   0.000055
               7          8          9
     1  C    0.008675  -0.001021  -0.000023
     2  C    0.003717   0.014498   0.000465
     3  H   -0.000140  -0.000021  -0.000043
     4  H   -0.000140  -0.000021  -0.000043
     5  H   -0.002610  -0.000299   0.000031
     6  C   -0.034649  -0.002197   0.000055
     7  H    0.038300  -0.000240   0.000005
     8  O   -0.000240  -0.018448   0.000778
     9  H    0.000005   0.000778  -0.001063
 Mulliken charges and spin densities:
               1          2
     1  C   -0.534616   0.639704
     2  C    0.214416  -0.138033
     3  H    0.208654  -0.024327
     4  H    0.208654  -0.024327
     5  H    0.211927  -0.118067
     6  C   -0.290828   0.658942
     7  H    0.191209   0.012918
     8  O   -0.573222  -0.006972
     9  H    0.363806   0.000162
 Sum of Mulliken charges =   0.00000   1.00000
 Mulliken charges and spin densities with hydrogens summed into heavy atoms:
               1          2
     1  C    0.094619   0.472983
     2  C    0.214416  -0.138033
     6  C   -0.099620   0.671860
     8  O   -0.209416  -0.006809
 APT charges:
               1
     1  C   -0.057534
     2  C    0.507839
     3  H    0.011381
     4  H    0.011381
     5  H    0.067406
     6  C   -0.366571
     7  H    0.130687
     8  O   -0.598814
     9  H    0.294225
 Sum of APT charges =   0.00000
 APT charges with hydrogens summed into heavy atoms:
               1
     1  C    0.032634
     2  C    0.507839
     6  C   -0.235884
     8  O   -0.304589
 Electronic spatial extent (au):  <R**2>=            267.8733
 Charge=              0.0000 electrons
 Dipole moment (field-independent basis, Debye):
    X=             -0.1880    Y=             -1.9917    Z=              0.0000  Tot=              2.0006
 Quadrupole moment (field-independent basis, Debye-Ang):
   XX=            -24.4668   YY=            -21.6699   ZZ=            -25.7708
   XY=              3.3611   XZ=              0.0000   YZ=              0.0000
 Traceless Quadrupole moment (field-independent basis, Debye-Ang):
   XX=             -0.4977   YY=              2.2993   ZZ=             -1.8016
   XY=              3.3611   XZ=              0.0000   YZ=              0.0000
 Octapole moment (field-independent basis, Debye-Ang**2):
  XXX=            -11.4919  YYY=              1.3907  ZZZ=              0.0000  XYY=             -4.4231
  XXY=             -6.8403  XXZ=              0.0000  XZZ=             -3.2827  YZZ=             -3.0264
  YYZ=              0.0000  XYZ=              0.0000
 Hexadecapole moment (field-independent basis, Debye-Ang**3):
 XXXX=           -169.9792 YYYY=           -122.0582 ZZZZ=            -30.5303 XXXY=             13.6391
 XXXZ=              0.0001 YYYX=              8.6740 YYYZ=              0.0000 ZZZX=              0.0000
 ZZZY=              0.0000 XXYY=            -44.1185 XXZZ=            -34.6026 YYZZ=            -27.5494
 XXYZ=              0.0000 YYXZ=              0.0000 ZZXY=             -1.6448
 N-N= 1.131733114425D+02 E-N=-6.725361980870D+02  KE= 1.898772108358D+02
  Exact polarizability:  35.420   4.428  44.363   0.000   0.000  16.711
 Approx polarizability:  55.244  13.323  71.688   0.000   0.000  20.583
                          Isotropic Fermi Contact Couplings
        Atom                 a.u.       MegaHertz       Gauss      10(-4) cm-1
     1  C(13)              0.22918     257.64522      91.93422      85.94119
     2  C(13)             -0.02744     -30.84672     -11.00688     -10.28936
     3  H(1)              -0.00663     -29.61981     -10.56908      -9.88010
     4  H(1)              -0.00663     -29.62007     -10.56918      -9.88019
     5  H(1)              -0.03337    -149.13878     -53.21642     -49.74734
     6  C(13)              0.27183     305.59107     109.04249     101.93421
     7  H(1)               0.00982      43.87317      15.65504      14.63451
     8  O(17)             -0.00007       0.04492       0.01603       0.01498
     9  H(1)               0.00057       2.55209       0.91065       0.85128
 --------------------------------------------------------
       Center         ----  Spin Dipole Couplings  ----
                      3XX-RR        3YY-RR        3ZZ-RR
 --------------------------------------------------------
     1   Atom        0.044040      0.251890     -0.295930
     2   Atom        0.064107      0.028468     -0.092575
     3   Atom       -0.025826      0.001961      0.023864
     4   Atom       -0.025825      0.001961      0.023865
     5   Atom       -0.005619      0.090083     -0.084465
     6   Atom        0.246255     -0.050162     -0.196093
     7   Atom       -0.012724      0.054378     -0.041654
     8   Atom        0.034717      0.041744     -0.076461
     9   Atom        0.008573     -0.003593     -0.004980
 --------------------------------------------------------
                        XY            XZ            YZ
 --------------------------------------------------------
     1   Atom        0.422821     -0.000003     -0.000003
     2   Atom        0.008836      0.000000      0.000000
     3   Atom        0.008890     -0.017296      0.037502
     4   Atom        0.008890      0.017296     -0.037502
     5   Atom       -0.011418      0.000000      0.000000
     6   Atom       -0.374051     -0.000002      0.000002
     7   Atom        0.011090      0.000000      0.000000
     8   Atom        0.008334      0.000000      0.000000
     9   Atom        0.000002      0.000000      0.000000
 --------------------------------------------------------


 ---------------------------------------------------------------------------------
              Anisotropic Spin Dipole Couplings in Principal Axis System
 ---------------------------------------------------------------------------------

       Atom             a.u.   MegaHertz   Gauss  10(-4) cm-1        Axes

              Baa    -0.2959   -39.711   -14.170   -13.246  0.0000  0.0000  1.0000
     1 C(13)  Bbb    -0.2874   -38.572   -13.763   -12.866  0.7870 -0.6170  0.0000
              Bcc     0.5834    78.283    27.933    26.112  0.6170  0.7870  0.0000
 
              Baa    -0.0926   -12.423    -4.433    -4.144  0.0000  0.0000  1.0000
     2 C(13)  Bbb     0.0264     3.542     1.264     1.182 -0.2281  0.9736  0.0000
              Bcc     0.0662     8.880     3.169     2.962  0.9736  0.2281  0.0000
 
              Baa    -0.0439   -23.400    -8.350    -7.805  0.7100 -0.5234  0.4712
     3 H(1)   Bbb    -0.0091    -4.850    -1.730    -1.618  0.6951  0.6280 -0.3498
              Bcc     0.0529    28.250    10.080     9.423 -0.1128  0.5759  0.8097
 
              Baa    -0.0439   -23.400    -8.350    -7.805  0.7100 -0.5234 -0.4712
     4 H(1)   Bbb    -0.0091    -4.850    -1.730    -1.618  0.6951  0.6280  0.3498
              Bcc     0.0529    28.250    10.080     9.423  0.1128 -0.5759  0.8097
 
              Baa    -0.0845   -45.066   -16.081   -15.033  0.0000  0.0000  1.0000
     5 H(1)   Bbb    -0.0070    -3.715    -1.325    -1.239  0.9931  0.1169  0.0000
              Bcc     0.0914    48.781    17.406    16.272 -0.1169  0.9931  0.0000
 
              Baa    -0.3043   -40.834   -14.570   -13.621  0.5620  0.8272  0.0000
     6 C(13)  Bbb    -0.1961   -26.314    -9.389    -8.777  0.0000  0.0000  1.0000
              Bcc     0.5004    67.148    23.960    22.398  0.8272 -0.5620  0.0000
 
              Baa    -0.0417   -22.225    -7.930    -7.413  0.0000  0.0000  1.0000
     7 H(1)   Bbb    -0.0145    -7.742    -2.762    -2.582  0.9873 -0.1589  0.0000
              Bcc     0.0562    29.966    10.693     9.996  0.1589  0.9873  0.0000
 
              Baa    -0.0765     5.533     1.974     1.846  0.0000  0.0000  1.0000
     8 O(17)  Bbb     0.0292    -2.112    -0.754    -0.704  0.8332 -0.5530  0.0000
              Bcc     0.0473    -3.421    -1.221    -1.141  0.5530  0.8332  0.0000
 
              Baa    -0.0050    -2.657    -0.948    -0.886  0.0000  0.0000  1.0000
     9 H(1)   Bbb    -0.0036    -1.917    -0.684    -0.639 -0.0002  1.0000  0.0000
              Bcc     0.0086     4.574     1.632     1.526  1.0000  0.0002  0.0000
 

 ---------------------------------------------------------------------------------

 No NMR shielding tensors so no spin-rotation constants.
 Leave Link  601 at Thu Jan  7 21:52:19 2021, MaxMem=    33554432 cpu:         0.1
 (Enter /apps/applications/gaussian/G09.D01/2/default/g09/l701.exe)
 Compute integral second derivatives.
 ... and contract with generalized density number  0.
 Leave Link  701 at Thu Jan  7 21:52:19 2021, MaxMem=    33554432 cpu:         0.1
 (Enter /apps/applications/gaussian/G09.D01/2/default/g09/l702.exe)
 L702 exits ... SP integral derivatives will be done elsewhere.
 Leave Link  702 at Thu Jan  7 21:52:19 2021, MaxMem=    33554432 cpu:         0.0
 (Enter /apps/applications/gaussian/G09.D01/2/default/g09/l703.exe)
 Compute integral second derivatives, UseDBF=F ICtDFT=           0.
 Integral derivatives from FoFJK, PRISM(SPDF).
 Calling FoFJK, ICntrl=    100127 FMM=F ISym2X=0 I1Cent= 0 IOpClX= 1 NMat=1 NMatS=1 NMatT=0.
 FoFJK:  IHMeth= 1 ICntrl=  100127 DoSepK=F KAlg= 0 I1Cent=   0 FoldK=F
 IRaf=         0 NMat=   1 IRICut=       1 DoRegI=T DoRafI=F ISym2E= 0.
 FoFCou: FMM=F IPFlag=           0 FMFlag=      100000 FMFlg1=         800
         NFxFlg=           0 DoJE=F BraDBF=F KetDBF=F FulRan=T
         wScrn=  0.000000 ICntrl=  100127 IOpCl=  1 I1Cent=           0 NGrid=           0
         NMat0=    1 NMatS0=      1 NMatT0=    0 NMatD0=    1 NMtDS0=    0 NMtDT0=    0
 Symmetry not used in FoFCou.
 Leave Link  703 at Thu Jan  7 21:52:28 2021, MaxMem=    33554432 cpu:         8.9
 (Enter /apps/applications/gaussian/G09.D01/2/default/g09/l716.exe)
 Dipole        =-7.39628662D-02-7.83610493D-01-1.97556678D-06
 Polarizability= 3.54202473D+01 4.42767587D+00 4.43629063D+01
                 1.53007182D-05 2.04223029D-05 1.67110725D+01
 ***** Axes restored to original set *****
 -------------------------------------------------------------------
 Center     Atomic                   Forces (Hartrees/Bohr)
 Number     Number              X              Y              Z
 -------------------------------------------------------------------
      1        6           0.012022865   -0.019920875    0.018261750
      2        6           0.008563986    0.013445338    0.006033779
      3        1           0.005783425   -0.008421342   -0.005154392
      4        1          -0.007419544   -0.005394326    0.006839941
      5        1          -0.015409183   -0.003413255   -0.016100306
      6        6           0.014649765   -0.002614865    0.016785553
      7        1          -0.007724791    0.031069585   -0.016344084
      8        8          -0.010851555   -0.004762427   -0.010743046
      9        1           0.000385032    0.000012168    0.000420806
 -------------------------------------------------------------------
 Cartesian Forces:  Max     0.031069585 RMS     0.012151958
 Force constants in Cartesian coordinates: 
                1             2             3             4             5 
      1  0.427489D+00
      2 -0.219144D+00  0.309869D+00
      3 -0.143143D+00 -0.166039D+00  0.492113D+00
      4 -0.106870D+00  0.555885D-01 -0.498894D-01  0.456811D+00
      5  0.395009D-01 -0.118789D+00  0.547103D-01  0.215907D+00  0.767376D+00
      6 -0.458294D-01  0.724188D-01 -0.143015D+00  0.272042D+00  0.844210D-01
      7 -0.219365D+00  0.144380D+00  0.722469D-01 -0.880200D-02  0.967714D-02
      8  0.157368D+00 -0.126620D+00 -0.522719D-01  0.582647D-02 -0.944082D-02
      9  0.776765D-01 -0.446569D-01 -0.768796D-01 -0.194959D-01  0.201414D-01
     10 -0.117572D+00 -0.272464D-01  0.131110D+00  0.126332D-01  0.978945D-02
     11 -0.373903D-01 -0.479682D-01  0.899622D-01 -0.581700D-02 -0.792366D-02
     12  0.124963D+00  0.792170D-01 -0.257324D+00  0.130760D-01  0.810705D-02
     13 -0.316148D-01 -0.134288D-01 -0.626867D-02 -0.289120D-01 -0.174983D-01
     14  0.604906D-01  0.964075D-01  0.364908D-01 -0.880571D-02  0.121127D-01
     15 -0.249235D-01 -0.448763D-01 -0.389503D-01 -0.286037D-01 -0.225471D-01
     16  0.492500D-01  0.685439D-01  0.105125D-01 -0.122332D+00 -0.159133D+00
     17 -0.106486D-01 -0.119981D+00  0.246110D-01 -0.180924D+00 -0.499704D+00
     18  0.304982D-01  0.111782D+00  0.293453D-01 -0.281645D-01 -0.630036D-01
     19  0.147515D-02  0.145027D-02 -0.599695D-02  0.391139D-02 -0.876439D-02
     20 -0.805926D-03 -0.699580D-02  0.254164D-02  0.102514D-01  0.794138D-02
     21 -0.542754D-02  0.502515D-02 -0.651878D-03 -0.208323D-02 -0.107801D-01
     22 -0.512498D-02 -0.119845D-01 -0.977485D-02 -0.189943D+00 -0.483542D-01
     23  0.985942D-02  0.998063D-02  0.997509D-02 -0.954512D-01 -0.131541D+00
     24 -0.152876D-01 -0.140697D-01 -0.677436D-02 -0.143154D+00 -0.296215D-01
     25  0.233315D-02  0.184101D-02  0.120365D-02 -0.164970D-01 -0.411249D-01
     26  0.770256D-03  0.409671D-02  0.203372D-04  0.342478D-02 -0.200317D-01
     27  0.147391D-02  0.119898D-02  0.213739D-02 -0.137268D-01 -0.414274D-01
                6             7             8             9            10 
      6  0.438316D+00
      7  0.772507D-02  0.234866D+00
      8 -0.271106D-02 -0.158723D+00  0.136907D+00
      9  0.920895D-02 -0.793546D-01  0.478983D-01  0.757312D-01
     10 -0.190554D-01 -0.828474D-02 -0.876628D-02  0.183515D-01  0.117711D+00
     11  0.954200D-02  0.115170D-01  0.102218D-01 -0.166571D-01  0.331162D-01
     12 -0.137435D-01  0.308257D-02  0.527037D-02 -0.510251D-02 -0.135644D+00
     13 -0.264099D-01  0.361267D-02  0.685367D-02  0.370359D-02 -0.263110D-02
     14 -0.129788D-01 -0.738509D-02 -0.127095D-01 -0.393453D-02 -0.467565D-02
     15 -0.267030D-01  0.133155D-02  0.107371D-02 -0.965971D-03  0.619363D-02
     16 -0.336641D-01 -0.291024D-02 -0.384530D-02 -0.364795D-02 -0.121047D-02
     17 -0.869909D-01  0.437269D-03  0.148096D-02 -0.155403D-02 -0.187402D-02
     18 -0.703675D-01 -0.419154D-02 -0.990604D-03 -0.131662D-02 -0.403133D-02
     19  0.271583D-02  0.182698D-02  0.652534D-03  0.207771D-02 -0.426179D-03
     20  0.101518D-01 -0.883050D-04 -0.632551D-03 -0.988089D-04  0.323578D-03
     21  0.388104D-02 -0.158640D-03  0.704498D-03 -0.437519D-03  0.200929D-02
     22 -0.155040D+00 -0.191971D-03  0.108078D-02  0.876892D-03 -0.196148D-03
     23 -0.814636D-01  0.505472D-04  0.740043D-03 -0.401239D-03  0.920374D-04
     24 -0.188110D+00 -0.898779D-03  0.102020D-02 -0.394253D-03  0.112612D-02
     25 -0.248410D-02 -0.751886D-03 -0.446425D-03 -0.187796D-03 -0.231555D-04
     26  0.761080D-02  0.134554D-03  0.534649D-04 -0.737009D-03 -0.758902D-03
     27 -0.946682D-02  0.217396D-03  0.647960D-05  0.156317D-03 -0.599635D-04
               11            12            13            14            15 
     11  0.550976D-01
     12 -0.890742D-01  0.274696D+00
     13 -0.207900D-02 -0.427194D-03  0.718460D-01
     14 -0.109549D-01 -0.414874D-02  0.324699D-01 -0.109609D+00
     15  0.937458D-02  0.352282D-02  0.228667D-01  0.744132D-01  0.500191D-01
     16 -0.931350D-03 -0.373201D-02 -0.203085D-01 -0.740510D-01  0.281820D-01
     17  0.125340D-02  0.210799D-03 -0.520353D-02  0.287048D-01 -0.202739D-01
     18 -0.402887D-02 -0.278894D-02  0.108072D-01 -0.960578D-01  0.720441D-02
     19  0.515075D-03 -0.462344D-03  0.262864D-02  0.647675D-02 -0.228446D-02
     20 -0.577007D-03  0.578660D-03 -0.152289D-02 -0.126196D-03 -0.832076D-03
     21  0.801614D-03  0.176012D-02 -0.265615D-03  0.797355D-02  0.914450D-03
     22  0.948764D-03 -0.112575D-02  0.500169D-02 -0.342412D-02 -0.240170D-02
     23  0.761001D-03  0.210623D-04  0.188834D-03 -0.359152D-02  0.312524D-02
     24  0.676714D-03 -0.411068D-03 -0.331348D-02 -0.851655D-03  0.453617D-02
     25  0.120643D-03  0.269897D-03  0.377299D-03 -0.109579D-02 -0.360517D-03
     26  0.900020D-04 -0.182026D-03  0.220073D-03 -0.233834D-03  0.542544D-03
     27 -0.596880D-03 -0.608931D-03 -0.692597D-03 -0.905910D-03  0.422302D-03
               16            17            18            19            20 
     16  0.121073D+00
     17  0.243595D+00  0.104666D+01
     18  0.182357D-01  0.162747D-01  0.646236D-01
     19 -0.132930D-01 -0.347500D-01  0.180594D-02  0.583047D-02
     20 -0.428093D-01 -0.458257D+00  0.667696D-01  0.337348D-01  0.458790D+00
     21  0.383988D-02  0.756410D-01 -0.218293D-01  0.612938D-03 -0.792721D-01
     22 -0.863458D-02 -0.126979D-01 -0.226523D-01 -0.239926D-02  0.117009D-02
     23 -0.325083D-01 -0.525843D-02 -0.307075D-01  0.996380D-03  0.154352D-03
     24 -0.176528D-01 -0.890116D-02 -0.232952D-02  0.228953D-02  0.609409D-04
     25 -0.163375D-02  0.206580D-02 -0.230727D-02  0.445847D-03 -0.253491D-03
     26  0.113862D-02  0.510596D-02 -0.380852D-04 -0.311402D-03 -0.297259D-03
     27 -0.207329D-02  0.982484D-03 -0.254140D-02 -0.758176D-03  0.100351D-03
               21            22            23            24            25 
     21  0.182198D-01
     22  0.224571D-02  0.225853D+00
     23 -0.130226D-03  0.153113D+00  0.550364D+00
     24 -0.220283D-02  0.193622D+00  0.333950D-01  0.219552D+00
     25 -0.772790D-03 -0.243653D-01 -0.363405D-01 -0.167307D-01  0.401148D-01
     26  0.365913D-04 -0.798517D-01 -0.421609D+00  0.182911D-01  0.752337D-01
     27  0.346126D-03 -0.575005D-02  0.661862D-01 -0.238668D-01  0.213696D-01
               26            27 
     26  0.432826D+00
     27 -0.255443D-01  0.334218D-01
 Leave Link  716 at Thu Jan  7 21:52:28 2021, MaxMem=    33554432 cpu:         0.0
 (Enter /apps/applications/gaussian/G09.D01/2/default/g09/l103.exe)

 GradGradGradGradGradGradGradGradGradGradGradGradGradGradGradGradGradGrad
 Berny optimization.
 Search for a saddle point.
 Step number   1 out of a maximum of  100
 All quantities printed in internal units (Hartrees-Bohrs-Radians)
 Swapping is turned off.
 Second derivative matrix not updated -- analytic derivatives used.
 ITU=  0
     Eigenvalues ---   -0.28689  -0.00251   0.00468   0.00721   0.01206
     Eigenvalues ---    0.02180   0.04319   0.06185   0.06631   0.08460
     Eigenvalues ---    0.13162   0.17189   0.19745   0.21557   0.29739
     Eigenvalues ---    0.53022   0.71876   0.84205   0.86054   1.05932
     Eigenvalues ---    1.72189
 Eigenvectors required to have negative eigenvalues:
                          Y5        Z5        Y1        Z6        X6
   1                    0.78833  -0.29727  -0.26908   0.24709   0.20563
                          X1        Z1        Y4        X5        Y6
   1                   -0.19653  -0.14843   0.09164  -0.08932  -0.08217
 Eigenvalue     2 is  -2.51D-03 should be greater than     0.000000 Eigenvector:
                          X7        Z7        Y4        Y3        Z3
   1                    0.55151  -0.50103  -0.27457   0.21771  -0.21674
                          X6        X5        Z6        Z5        X4
   1                   -0.19420  -0.19349   0.17642   0.17578   0.16213
 RFO step:  Lambda0=3.756485306D-04 Lambda=-1.87003687D-02.
 Linear search not attempted -- option 19 set.
 Maximum step size (   0.300) exceeded in Quadratic search.
    -- Step size scaled by   0.334
 TrRot=  0.000981  0.006535  0.014193  0.954469 -0.006154 -0.951450
 Variable       Old X    -DE/DX   Delta X   Delta X   Delta X     New X
                                 (Linear)    (Quad)   (Total)
    X1        0.80092   0.01202   0.00000   0.01413   0.01452   0.81544
    Y1       -1.20492  -0.01992   0.00000  -0.01818  -0.01522  -1.22014
    Z1        1.18570   0.01826   0.00000   0.01972   0.03067   1.21637
    X2       -0.63340   0.00856   0.00000  -0.01351  -0.01070  -0.64410
    Y2        0.22089   0.01345   0.00000   0.01777   0.02594   0.24683
    Z2       -0.75296   0.00603   0.00000   0.03823   0.05132  -0.70165
    X3        2.36031   0.00578   0.00000   0.01938   0.02553   2.38585
    Y3       -2.37211  -0.00842   0.00000   0.01455   0.02556  -2.34655
    Z3        0.60523  -0.00515   0.00000  -0.06074  -0.04987   0.55536
    X4       -0.14713  -0.00742   0.00000   0.02474   0.02121  -0.12592
    Y4       -1.79722  -0.00539   0.00000  -0.10559  -0.11389  -1.91111
    Z4        2.88316   0.00684   0.00000   0.00387   0.00804   2.89120
    X5        1.84094  -0.01541   0.00000  -0.06830  -0.07729   1.76364
    Y5        1.27150  -0.00341   0.00000  -0.02427  -0.02114   1.25036
    Z5        1.70553  -0.01610   0.00000   0.03111   0.05785   1.76338
    X6        0.32904   0.01465   0.00000  -0.03131  -0.03719   0.29185
    Y6        2.47524  -0.00261   0.00000   0.02883   0.03724   2.51249
    Z6       -0.26248   0.01679   0.00000   0.05880   0.08661  -0.17587
    X7        0.46577  -0.00772   0.00000   0.04932   0.03994   0.50571
    Y7        4.40010   0.03107   0.00000  -0.00589   0.00628   4.40638
    Z7       -0.59774  -0.01634   0.00000  -0.22975  -0.19168  -0.78942
    X8       -2.36447  -0.01085   0.00000   0.02950   0.04103  -2.32344
    Y8       -0.57424  -0.00476   0.00000   0.00997   0.02195  -0.55229
    Z8       -2.45779  -0.01074   0.00000  -0.02287  -0.01980  -2.47758
    X9       -2.65198   0.00039   0.00000  -0.03341  -0.01706  -2.66904
    Y9       -2.41925   0.00001   0.00000   0.02337   0.03329  -2.38596
    Z9       -2.30865   0.00042   0.00000   0.03422   0.02686  -2.28179
         Item               Value     Threshold  Converged?
 Maximum Force            0.031070     0.000450     NO 
 RMS     Force            0.012152     0.000300     NO 
 Maximum Displacement     0.191680     0.001800     NO 
 RMS     Displacement     0.056166     0.001200     NO 
 Predicted change in Energy=-5.421418D-03
 Lowest energy point so far.  Saving SCF results.
 GradGradGradGradGradGradGradGradGradGradGradGradGradGradGradGradGradGrad

 Leave Link  103 at Thu Jan  7 21:52:28 2021, MaxMem=    33554432 cpu:         0.0
 (Enter /apps/applications/gaussian/G09.D01/2/default/g09/l202.exe)
                          Input orientation:                          
 ---------------------------------------------------------------------
 Center     Atomic      Atomic             Coordinates (Angstroms)
 Number     Number       Type             X           Y           Z
 ---------------------------------------------------------------------
      1          6           0        0.431514   -0.645669    0.643675
      2          6           0       -0.340843    0.130615   -0.371296
      3          1           0        1.262536   -1.241742    0.293882
      4          1           0       -0.066633   -1.011315    1.529959
      5          1           0        0.933278    0.661661    0.933143
      6          6           0        0.154442    1.329551   -0.093068
      7          1           0        0.267611    2.331754   -0.417745
      8          8           0       -1.229510   -0.292259   -1.311079
      9          1           0       -1.412394   -1.262596   -1.207470
 ---------------------------------------------------------------------
                    Distance matrix (angstroms):
                    1          2          3          4          5
     1  C    0.000000
     2  C    1.493090   0.000000
     3  H    1.080859   2.212837   0.000000
     4  H    1.080438   2.234718   1.829664   0.000000
     5  H    1.429920   1.899198   2.034701   2.038347   0.000000
     6  C    2.126277   1.326712   2.826509   2.857051   1.451127
     7  H    3.165205   2.284160   3.777057   3.883475   2.248826
     8  O    2.589395   1.360789   3.112509   3.152907   3.259471
     9  H    2.684648   1.946393   3.067531   3.060675   3.713107
                    6          7          8          9
     6  C    0.000000
     7  H    1.059544   0.000000
     8  O    2.455431   3.150375   0.000000
     9  H    3.227397   4.045421   0.992841   0.000000
 Stoichiometry    C3H5O(2)
 Framework group  C1[X(C3H5O)]
 Deg. of freedom    21
 Full point group                 C1      NOp   1
 RotChk:  IX=2 Diff= 4.36D-02
 Largest Abelian subgroup         C1      NOp   1
 Largest concise Abelian subgroup C1      NOp   1
                         Standard orientation:                         
 ---------------------------------------------------------------------
 Center     Atomic      Atomic             Coordinates (Angstroms)
 Number     Number       Type             X           Y           Z
 ---------------------------------------------------------------------
      1          6           0        0.945628   -0.942991   -0.009248
      2          6           0       -0.129202    0.093024    0.017797
      3          1           0        1.133063   -1.447546   -0.946557
      4          1           0        1.158940   -1.515830    0.881650
      5          1           0        1.765161    0.228444    0.018595
      6          6           0        0.655105    1.163053    0.025800
      7          1           0        0.713668    2.212053   -0.111327
      8          8           0       -1.482758   -0.044154   -0.010777
      9          1           0       -1.737951   -1.002410    0.037757
 ---------------------------------------------------------------------
 Rotational constants (GHZ):     12.9140018      8.1316090      5.1644000
 Leave Link  202 at Thu Jan  7 21:52:28 2021, MaxMem=    33554432 cpu:         0.0
 (Enter /apps/applications/gaussian/G09.D01/2/default/g09/l301.exe)
 Standard basis: 3-21G (6D, 7F)
 Ernie: Thresh=  0.10000D-02 Tol=  0.10000D-05 Strict=F.
 There are    46 symmetry adapted cartesian basis functions of A   symmetry.
 There are    46 symmetry adapted basis functions of A   symmetry.
    46 basis functions,    75 primitive gaussians,    46 cartesian basis functions
    16 alpha electrons       15 beta electrons
       nuclear repulsion energy       112.6805840960 Hartrees.
 IExCor=  402 DFT=T Ex+Corr=B3LYP ExCW=0 ScaHFX=  0.200000
 ScaDFX=  0.800000  0.720000  1.000000  0.810000 ScalE2=  1.000000  1.000000
 IRadAn=      0 IRanWt=     -1 IRanGd=            0 ICorTp=0 IEmpDi=  4
 NAtoms=    9 NActive=    9 NUniq=    9 SFac= 1.00D+00 NAtFMM=   60 NAOKFM=F Big=F
 Integral buffers will be    131072 words long.
 Raffenetti 2 integral format.
 Two-electron integral symmetry is turned on.
 Leave Link  301 at Thu Jan  7 21:52:28 2021, MaxMem=    33554432 cpu:         0.0
 (Enter /apps/applications/gaussian/G09.D01/2/default/g09/l302.exe)
 NPDir=0 NMtPBC=     1 NCelOv=     1 NCel=       1 NClECP=     1 NCelD=      1
         NCelK=      1 NCelE2=     1 NClLst=     1 CellRange=     0.0.
 One-electron integrals computed using PRISM.
 NBasis=    46 RedAO= T EigKep=  6.69D-03  NBF=    46
 NBsUse=    46 1.00D-06 EigRej= -1.00D+00 NBFU=    46
 Precomputing XC quadrature grid using
 IXCGrd= 4 IRadAn=           0 IRanWt=          -1 IRanGd=           0 AccXCQ= 0.00D+00.
 Generated NRdTot=       0 NPtTot=           0 NUsed=           0 NTot=          32
 NSgBfM=    46    46    46    46    46 MxSgAt=     9 MxSgA2=     9.
 Leave Link  302 at Thu Jan  7 21:52:29 2021, MaxMem=    33554432 cpu:         0.1
 (Enter /apps/applications/gaussian/G09.D01/2/default/g09/l303.exe)
 DipDrv:  MaxL=1.
 Leave Link  303 at Thu Jan  7 21:52:29 2021, MaxMem=    33554432 cpu:         0.0
 (Enter /apps/applications/gaussian/G09.D01/2/default/g09/l401.exe)
 Initial guess from the checkpoint file:  "/nobackup/chmrsh/Scratch/Gau-21216.chk"
 B after Tr=     0.000000    0.000000    0.000000
         Rot=    0.999926   -0.002486   -0.000766   -0.011847 Ang=  -1.39 deg.
 Guess basis will be translated and rotated to current coordinates.
 JPrj=2 DoOrth=T DoCkMO=T.
 Initial guess <Sx>= 0.0000 <Sy>= 0.0000 <Sz>= 0.5000 <S**2>= 0.7650 S= 0.5074
 Generating alternative initial guess.
 ExpMin= 1.83D-01 ExpMax= 3.22D+02 ExpMxC= 3.22D+02 IAcc=1 IRadAn=         1 AccDes= 0.00D+00
 Harris functional with IExCor=  402 and IRadAn=       1 diagonalized for initial guess.
 HarFok:  IExCor=  402 AccDes= 0.00D+00 IRadAn=         1 IDoV= 1 UseB2=F ITyADJ=14
 ICtDFT=  3500011 ScaDFX=  1.000000  1.000000  1.000000  1.000000
 FoFCou: FMM=F IPFlag=           0 FMFlag=      100000 FMFlg1=           0
         NFxFlg=           0 DoJE=T BraDBF=F KetDBF=T FulRan=T
         wScrn=  0.000000 ICntrl=     500 IOpCl=  0 I1Cent=   200000004 NGrid=           0
         NMat0=    1 NMatS0=      1 NMatT0=    0 NMatD0=    1 NMtDS0=    0 NMtDT0=    0
 Petite list used in FoFCou.
 Harris En= -191.299488047710    
 Leave Link  401 at Thu Jan  7 21:52:29 2021, MaxMem=    33554432 cpu:         0.3
 (Enter /apps/applications/gaussian/G09.D01/2/default/g09/l508.exe)
 Direct SCF.
 Tight linear equation convergence will be used.
 UB3LYP wavefunction.
 Quadratic Convergence SCF Method.
 Line search only if initial step raises energy.
 Integral symmetry usage will be decided dynamically.
 ReadGW:  IGet=1 IStart=         402 Next=         402 LGW=           0.
 Keep R1 and R2 ints in memory in canonical form, NReq=2054798.
 FoFCou: FMM=F IPFlag=           0 FMFlag=           0 FMFlg1=           0
         NFxFlg=           0 DoJE=F BraDBF=F KetDBF=F FulRan=T
         wScrn=  0.000000 ICntrl=     600 IOpCl=  0 I1Cent=           0 NGrid=           0
         NMat0=    1 NMatS0=   1081 NMatT0=    0 NMatD0=    1 NMtDS0=    0 NMtDT0=    0
 Symmetry not used in FoFCou.
 Iteration   1 EE= -191.298275887037                                    Grad=6.226D-02 Max rot=    0.6121 deg.
 Gradient too large for Newton-Raphson -- use scaled steepest descent instead.
 Alpha Gap=     0.667 HL deriv= 8.39D-04
  Beta Gap=     0.792 HL deriv= 2.09D-03
     ILin= 1 X=0.000D+00 Y=-1.912982758870D+02 DE= 0.00D+00 F= -4.48D-03
     ILin= 2 X=3.000D-01 Y=-1.912994255621D+02 DE=-1.15D-03 F= -3.19D-03
     ILin= 3 X=6.000D-01 Y=-1.913001892214D+02 DE=-1.91D-03 F= -1.90D-03
     ILin= 4 X=1.200D+00 Y=-1.913005581785D+02 DE=-2.28D-03 F=  6.72D-04
     Accept linear search using points  3 and  4.
     An  expanding polynomial of degree  4 produced  0.9628
 Iteration   2 EE= -191.300596931893     Delta-E=       -0.002321044856 Grad=2.201D-02 Max rot=    0.3387 deg.
 Gradient too large for Newton-Raphson -- use scaled steepest descent instead.
 Alpha Gap=     0.668 HL deriv= 1.89D-03
  Beta Gap=     0.793 HL deriv= 1.01D-03
     ILin= 1 X=0.000D+00 Y=-1.913005969319D+02 DE= 0.00D+00 F= -7.36D-04
     ILin= 2 X=5.000D-01 Y=-1.913008626391D+02 DE=-2.66D-04 F= -3.27D-04
     ILin= 3 X=1.100D+00 Y=-1.913009117134D+02 DE=-3.15D-04 F=  1.63D-04
     Accept linear search using points  2 and  3.
     An  expanding polynomial of degree  3 produced  0.8417
 Iteration   3 EE= -191.300926663904     Delta-E=       -0.000329732011 Grad=1.474D-02 Max rot=    0.2027 deg.
 Gradient too large for Newton-Raphson -- use scaled steepest descent instead.
 Alpha Gap=     0.668 HL deriv= 4.10D-04
  Beta Gap=     0.792 HL deriv= 5.79D-04
     ILin= 1 X=0.000D+00 Y=-1.913009266639D+02 DE= 0.00D+00 F= -3.71D-04
     ILin= 2 X=9.000D-01 Y=-1.913010369326D+02 DE=-1.10D-04 F=  1.25D-04
     Accept linear search using points  1 and  2.
     An  expanding polynomial of degree  2 produced  0.6455
 Iteration   4 EE= -191.301051027347     Delta-E=       -0.000124363443 Grad=1.071D-02 Max rot=    0.2429 deg.
 Gradient too large for Newton-Raphson -- use scaled steepest descent instead.
 Alpha Gap=     0.668 HL deriv= 6.42D-04
  Beta Gap=     0.792 HL deriv= 1.16D-03
     ILin= 1 X=0.000D+00 Y=-1.913010510273D+02 DE= 0.00D+00 F= -1.81D-04
     ILin= 2 X=7.000D-01 Y=-1.913011183431D+02 DE=-6.73D-05 F= -1.11D-05
     Reject lnstep minimum 1.310D+00 FVal=-1.913011241976D+02 Lims=  0.00D+00  7.00D-01
     ILin= 3 X=1.500D+00 Y=-1.913010494372D+02 DE= 1.59D-06 F=  1.83D-04
     An  expanding polynomial of degree  3 produced  0.7456
     Minimum is close to point  2 DX=  4.56D-02 DF= -2.53D-07 DXR=  6.12D-02 DFR=  3.76D-03 which will be used.
 Iteration   5 EE= -191.301118343110     Delta-E=       -0.000067315763 Grad=8.203D-03 Max rot=    0.1117 deg.
 QCNR:  CnvC1=3.07D-09 CnvC2=3.07D-08
 LinEq1:  Iter=  0 NonCon=     1 RMS=6.35D-04 Max=1.38D-02 NDo=     1
 AX will form     1 AO Fock derivatives at one time.
 LinEq1:  Iter=  1 NonCon=     1 RMS=2.83D-04 Max=3.50D-03 NDo=     1
 LinEq1:  Iter=  2 NonCon=     1 RMS=1.57D-04 Max=2.20D-03 NDo=     1
 LinEq1:  Iter=  3 NonCon=     1 RMS=1.51D-04 Max=1.60D-03 NDo=     1
 LinEq1:  Iter=  4 NonCon=     1 RMS=5.92D-05 Max=7.70D-04 NDo=     1
 LinEq1:  Iter=  5 NonCon=     1 RMS=3.07D-05 Max=3.76D-04 NDo=     1
 LinEq1:  Iter=  6 NonCon=     1 RMS=1.18D-05 Max=1.19D-04 NDo=     1
 LinEq1:  Iter=  7 NonCon=     1 RMS=5.05D-06 Max=4.60D-05 NDo=     1
 LinEq1:  Iter=  8 NonCon=     1 RMS=2.78D-06 Max=3.31D-05 NDo=     1
 LinEq1:  Iter=  9 NonCon=     1 RMS=1.21D-06 Max=1.67D-05 NDo=     1
 LinEq1:  Iter= 10 NonCon=     1 RMS=3.31D-07 Max=3.26D-06 NDo=     1
 LinEq1:  Iter= 11 NonCon=     1 RMS=7.50D-08 Max=5.57D-07 NDo=     1
 LinEq1:  Iter= 12 NonCon=     1 RMS=1.78D-08 Max=1.39D-07 NDo=     1
 LinEq1:  Iter= 13 NonCon=     1 RMS=3.30D-09 Max=1.95D-08 NDo=     1
 LinEq1:  Iter= 14 NonCon=     0 RMS=6.19D-10 Max=3.36D-09 NDo=     1
 Linear equations converged to 3.074D-09 3.074D-08 after    14 iterations.
 Angle between quadratic step and gradient=  51.65 degrees.
     ILin= 1 X=0.000D+00 Y=-1.913011183431D+02 DE= 0.00D+00 F= -2.68D-04
     ILin= 2 X=1.000D+00 Y=-1.913012522000D+02 DE=-1.34D-04 F=  3.27D-07
     Accept linear search using points  1 and  2.
     An  expanding polynomial of degree  2 produced  0.9988
     Minimum is close to point  2 DX= -1.22D-03 DF= -1.99D-10 DXR=  1.22D-03 DFR=  1.49D-06 which will be used.
 Iteration   6 EE= -191.301252200041     Delta-E=       -0.000133856930 Grad=1.147D-04 Max rot=    0.0014 deg.
 QCNR:  CnvC1=1.15D-09 CnvC2=1.15D-08
 LinEq1:  Iter=  0 NonCon=     1 RMS=5.91D-06 Max=6.38D-05 NDo=     1
 LinEq1:  Iter=  1 NonCon=     1 RMS=3.44D-06 Max=4.45D-05 NDo=     1
 LinEq1:  Iter=  2 NonCon=     1 RMS=1.60D-06 Max=1.40D-05 NDo=     1
 LinEq1:  Iter=  3 NonCon=     1 RMS=1.03D-06 Max=8.74D-06 NDo=     1
 LinEq1:  Iter=  4 NonCon=     1 RMS=4.75D-07 Max=5.83D-06 NDo=     1
 LinEq1:  Iter=  5 NonCon=     1 RMS=1.60D-07 Max=2.58D-06 NDo=     1
 LinEq1:  Iter=  6 NonCon=     1 RMS=1.32D-07 Max=3.00D-06 NDo=     1
 LinEq1:  Iter=  7 NonCon=     1 RMS=1.19D-07 Max=2.25D-06 NDo=     1
 LinEq1:  Iter=  8 NonCon=     1 RMS=6.33D-08 Max=5.32D-07 NDo=     1
 LinEq1:  Iter=  9 NonCon=     1 RMS=1.64D-08 Max=1.68D-07 NDo=     1
 LinEq1:  Iter= 10 NonCon=     1 RMS=3.37D-09 Max=2.89D-08 NDo=     1
 LinEq1:  Iter= 11 NonCon=     0 RMS=8.33D-10 Max=7.37D-09 NDo=     1
 Linear equations converged to 1.147D-09 1.147D-08 after    11 iterations.
 Angle between quadratic step and gradient=  48.33 degrees.
     ILin= 1 X=0.000D+00 Y=-1.913012522000D+02 DE= 0.00D+00 F= -1.91D-08
     ILin= 2 X=1.000D+00 Y=-1.913012522096D+02 DE=-9.55D-09 F= -7.46D-13
     Reject lnstep minimum 1.000D+00 FVal=-1.913012522096D+02 Lims=  0.00D+00  1.00D+00
     ILin= 3 X=2.000D+00 Y=-1.913012522000D+02 DE=-3.01D-12 F=  1.91D-08
     An  expanding polynomial of degree  3 produced  1.0001
     Minimum is close to point  2 DX=  8.04D-05 DF= -2.84D-14 DXR=  8.03D-05 DFR=  2.98D-06 which will be used.
 Iteration   7 EE= -191.301252209592     Delta-E=       -0.000000009551 Grad=6.259D-09 Max rot=    0.0000 deg.
 Rotation gradient small -- convergence achieved.
 SCF Done:  E(UB3LYP) =  -191.301252210     a.u. after    7 cycles
            Convg  =    0.6259D-08                    40 Fock formations.
              S**2 =  0.7648                  -V/T =  2.0079
 <Sx>= 0.0000 <Sy>= 0.0000 <Sz>= 0.5000 <S**2>= 0.7648 S= 0.5074
 <L.S>= 0.000000000000E+00
 Annihilation of the first spin contaminant:
 S**2 before annihilation     0.7648,   after     0.7501
 Leave Link  508 at Thu Jan  7 21:52:57 2021, MaxMem=    33554432 cpu:        28.1
 (Enter /apps/applications/gaussian/G09.D01/2/default/g09/l801.exe)
 DoSCS=F DFT=T ScalE2(SS,OS)=  1.000000  1.000000
 Range of M.O.s used for correlation:     1    46
 NBasis=    46 NAE=    16 NBE=    15 NFC=     0 NFV=     0
 NROrb=     46 NOA=    16 NOB=    15 NVA=    30 NVB=    31
 Leave Link  801 at Thu Jan  7 21:52:57 2021, MaxMem=    33554432 cpu:         0.0
 (Enter /apps/applications/gaussian/G09.D01/2/default/g09/l1101.exe)
 Using compressed storage, NAtomX=     9.
 Will process     10 centers per pass.
 Leave Link 1101 at Thu Jan  7 21:52:57 2021, MaxMem=    33554432 cpu:         0.1
 (Enter /apps/applications/gaussian/G09.D01/2/default/g09/l1102.exe)
 Symmetrizing basis deriv contribution to polar:
 IMax=3 JMax=2 DiffMx= 0.00D+00
 Leave Link 1102 at Thu Jan  7 21:52:57 2021, MaxMem=    33554432 cpu:         0.0
 (Enter /apps/applications/gaussian/G09.D01/2/default/g09/l1110.exe)
 Forming Gx(P) for the SCF density, NAtomX=     9.
 Integral derivatives from FoFJK, PRISM(SPDF).
 Do as many integral derivatives as possible in FoFJK.
 G2DrvN: MDV=      33554256.
 G2DrvN: will do    10 centers at a time, making    1 passes.
 Calling FoFCou, ICntrl=  3107 FMM=F I1Cent=   0 AccDes= 0.00D+00.
 FoFJK:  IHMeth= 1 ICntrl=    3107 DoSepK=F KAlg= 0 I1Cent=   0 FoldK=F
 IRaf=         0 NMat=   1 IRICut=       1 DoRegI=T DoRafI=F ISym2E= 0.
 FoFCou: FMM=F IPFlag=           0 FMFlag=      100000 FMFlg1=           0
         NFxFlg=           0 DoJE=F BraDBF=F KetDBF=F FulRan=T
         wScrn=  0.000000 ICntrl=    3107 IOpCl=  1 I1Cent=           0 NGrid=           0
         NMat0=    1 NMatS0=      1 NMatT0=    0 NMatD0=    1 NMtDS0=    0 NMtDT0=    0
 Symmetry not used in FoFCou.
 End of G2Drv F.D. properties file   721 does not exist.
 End of G2Drv F.D. properties file   722 does not exist.
 End of G2Drv F.D. properties file   788 does not exist.
 Leave Link 1110 at Thu Jan  7 21:53:07 2021, MaxMem=    33554432 cpu:        10.3
 (Enter /apps/applications/gaussian/G09.D01/2/default/g09/l1002.exe)
 Minotr:  UHF open shell wavefunction.
          IDoAtm=111111111
          Direct CPHF calculation.
          Differentiating once with respect to electric field.
                with respect to dipole field.
          Differentiating once with respect to nuclear coordinates.
          Requested convergence is 1.0D-08 RMS, and 1.0D-07 maximum.
          Secondary convergence is 1.0D-12 RMS, and 1.0D-12 maximum.
          NewPWx=T KeepS1=F KeepF1=F KeepIn=T MapXYZ=F SortEE=F KeepMc=T.
          MDV=      33554246 using IRadAn=       2.
 Generate precomputed XC quadrature information.
 Keep R1 and R2 ints in memory in canonical form, NReq=2035813.
 FoFCou: FMM=F IPFlag=           0 FMFlag=           0 FMFlg1=           0
         NFxFlg=           0 DoJE=F BraDBF=F KetDBF=F FulRan=T
         wScrn=  0.000000 ICntrl=     600 IOpCl=  0 I1Cent=           0 NGrid=           0
         NMat0=    1 NMatS0=   1081 NMatT0=    0 NMatD0=    1 NMtDS0=    0 NMtDT0=    0
 Symmetry not used in FoFCou.
          Solving linear equations simultaneously, MaxMat=       0.
          There are    30 degrees of freedom in the 1st order CPHF.  IDoFFX=6 NUNeed=     3.
     27 vectors produced by pass  0 Test12= 3.15D-15 3.33D-09 XBig12= 8.95D+01 3.44D+00.
 AX will form    27 AO Fock derivatives at one time.
     27 vectors produced by pass  1 Test12= 3.15D-15 3.33D-09 XBig12= 9.23D+00 6.38D-01.
     27 vectors produced by pass  2 Test12= 3.15D-15 3.33D-09 XBig12= 1.30D-01 7.03D-02.
     27 vectors produced by pass  3 Test12= 3.15D-15 3.33D-09 XBig12= 4.84D-04 3.58D-03.
     27 vectors produced by pass  4 Test12= 3.15D-15 3.33D-09 XBig12= 1.15D-06 1.56D-04.
     27 vectors produced by pass  5 Test12= 3.15D-15 3.33D-09 XBig12= 3.17D-09 8.39D-06.
      8 vectors produced by pass  6 Test12= 3.15D-15 3.33D-09 XBig12= 6.28D-12 5.61D-07.
      2 vectors produced by pass  7 Test12= 3.15D-15 3.33D-09 XBig12= 1.34D-14 2.01D-08.
 InvSVY:  IOpt=1 It=  1 EMax= 5.33D-15
 Solved reduced A of dimension   172 with    30 vectors.
 FullF1:  Do perturbations    1 to     3.
 Isotropic polarizability for W=    0.000000       32.52 Bohr**3.
 End of Minotr F.D. properties file   721 does not exist.
 End of Minotr F.D. properties file   722 does not exist.
 End of Minotr F.D. properties file   788 does not exist.
 Leave Link 1002 at Thu Jan  7 21:53:18 2021, MaxMem=    33554432 cpu:        10.1
 (Enter /apps/applications/gaussian/G09.D01/2/default/g09/l701.exe)
 Compute integral second derivatives.
 ... and contract with generalized density number  0.
 Leave Link  701 at Thu Jan  7 21:53:18 2021, MaxMem=    33554432 cpu:         0.1
 (Enter /apps/applications/gaussian/G09.D01/2/default/g09/l702.exe)
 L702 exits ... SP integral derivatives will be done elsewhere.
 Leave Link  702 at Thu Jan  7 21:53:18 2021, MaxMem=    33554432 cpu:         0.0
 (Enter /apps/applications/gaussian/G09.D01/2/default/g09/l703.exe)
 Compute integral second derivatives, UseDBF=F ICtDFT=           0.
 Integral derivatives from FoFJK, PRISM(SPDF).
 Calling FoFJK, ICntrl=    100127 FMM=F ISym2X=0 I1Cent= 0 IOpClX= 1 NMat=1 NMatS=1 NMatT=0.
 FoFJK:  IHMeth= 1 ICntrl=  100127 DoSepK=F KAlg= 0 I1Cent=   0 FoldK=F
 IRaf=         0 NMat=   1 IRICut=       1 DoRegI=T DoRafI=F ISym2E= 0.
 FoFCou: FMM=F IPFlag=           0 FMFlag=      100000 FMFlg1=         800
         NFxFlg=           0 DoJE=F BraDBF=F KetDBF=F FulRan=T
         wScrn=  0.000000 ICntrl=  100127 IOpCl=  1 I1Cent=           0 NGrid=           0
         NMat0=    1 NMatS0=      1 NMatT0=    0 NMatD0=    1 NMtDS0=    0 NMtDT0=    0
 Symmetry not used in FoFCou.
 Leave Link  703 at Thu Jan  7 21:53:27 2021, MaxMem=    33554432 cpu:         8.9
 (Enter /apps/applications/gaussian/G09.D01/2/default/g09/l716.exe)
 Dipole        =-7.46008151D-02-8.08658656D-01-4.68667986D-02
 Polarizability= 3.49309914D+01 4.01318075D+00 4.56146587D+01
                 2.50121337D-01-2.07062185D-01 1.70019246D+01
 ***** Axes restored to original set *****
 -------------------------------------------------------------------
 Center     Atomic                   Forces (Hartrees/Bohr)
 Number     Number              X              Y              Z
 -------------------------------------------------------------------
      1        6           0.008269635   -0.014004486    0.013328438
      2        6           0.005688335    0.008127352    0.004166826
      3        1           0.003370526   -0.005916547   -0.003020842
      4        1          -0.005033221   -0.003876538    0.004309142
      5        1          -0.010372960   -0.003039051   -0.010665417
      6        6           0.011588390    0.007830793    0.007402250
      7        1          -0.007506420    0.013266515   -0.009128469
      8        8          -0.006451524   -0.003483812   -0.006672260
      9        1           0.000447239    0.001095774    0.000280332
 -------------------------------------------------------------------
 Cartesian Forces:  Max     0.014004486 RMS     0.007622525
 Force constants in Cartesian coordinates: 
                1             2             3             4             5 
      1  0.424271D+00
      2 -0.192932D+00  0.308704D+00
      3 -0.145376D+00 -0.159401D+00  0.474951D+00
      4 -0.103272D+00  0.528602D-01 -0.431331D-01  0.433696D+00
      5  0.404840D-01 -0.114216D+00  0.485677D-01  0.207712D+00  0.757716D+00
      6 -0.411784D-01  0.669200D-01 -0.134173D+00  0.257138D+00  0.864553D-01
      7 -0.214844D+00  0.132529D+00  0.778739D-01 -0.968167D-02  0.974549D-02
      8  0.144687D+00 -0.119128D+00 -0.543737D-01  0.676762D-02 -0.108950D-01
      9  0.842340D-01 -0.464109D-01 -0.831961D-01 -0.194967D-01  0.191739D-01
     10 -0.114875D+00 -0.332436D-01  0.122864D+00  0.128076D-01  0.101457D-01
     11 -0.437584D-01 -0.588036D-01  0.970979D-01 -0.554159D-02 -0.792441D-02
     12  0.116923D+00  0.866381D-01 -0.242810D+00  0.127518D-01  0.809908D-02
     13 -0.330379D-01 -0.174365D-01 -0.725717D-02 -0.283215D-01 -0.181567D-01
     14  0.545642D-01  0.953354D-01  0.358528D-01 -0.874251D-02  0.933004D-02
     15 -0.224996D-01 -0.469137D-01 -0.392126D-01 -0.290713D-01 -0.204787D-01
     16  0.423886D-01  0.671372D-01  0.947070D-02 -0.121185D+00 -0.162632D+00
     17 -0.105306D-01 -0.117484D+00  0.201559D-01 -0.175250D+00 -0.487204D+00
     18  0.253461D-01  0.106258D+00  0.303145D-01 -0.259143D-01 -0.588328D-01
     19  0.224635D-02  0.122855D-02 -0.522626D-02  0.587076D-02 -0.341998D-02
     20 -0.120381D-02 -0.728376D-02  0.209808D-02  0.763888D-02  0.355486D-02
     21 -0.421963D-02  0.640499D-02 -0.759589D-03 -0.400521D-02 -0.159721D-01
     22 -0.497037D-02 -0.118064D-01 -0.103725D-01 -0.173223D+00 -0.444653D-01
     23  0.790844D-02  0.889703D-02  0.101204D-01 -0.884405D-01 -0.130397D+00
     24 -0.140888D-01 -0.145285D-01 -0.703668D-02 -0.133178D+00 -0.245747D-01
     25  0.209352D-02  0.166342D-02  0.115627D-02 -0.166913D-01 -0.394124D-01
     26  0.781338D-03  0.397946D-02 -0.117668D-03  0.299611D-02 -0.199636D-01
     27  0.858882D-03  0.103380D-02  0.192271D-02 -0.150914D-01 -0.424378D-01
                6             7             8             9            10 
      6  0.432278D+00
      7  0.809310D-02  0.230205D+00
      8 -0.298583D-02 -0.147275D+00  0.127490D+00
      9  0.957365D-02 -0.857372D-01  0.492214D-01  0.823077D-01
     10 -0.183624D-01 -0.792973D-02 -0.973881D-02  0.177252D-01  0.114431D+00
     11  0.869301D-02  0.108057D-01  0.106759D-01 -0.156024D-01  0.393240D-01
     12 -0.121401D-01  0.341068D-02  0.605107D-02 -0.558414D-02 -0.127482D+00
     13 -0.280106D-01  0.366826D-02  0.695802D-02  0.402512D-02 -0.242650D-02
     14 -0.131490D-01 -0.682009D-02 -0.110934D-01 -0.399439D-02 -0.442789D-02
     15 -0.281906D-01  0.919793D-03  0.461502D-03 -0.122244D-02  0.607443D-02
     16 -0.368729D-01 -0.254426D-02 -0.263527D-02 -0.374995D-02 -0.141886D-02
     17 -0.877627D-01  0.118092D-02  0.267684D-02 -0.944418D-03 -0.210487D-02
     18 -0.733046D-01 -0.380771D-02 -0.430795D-03 -0.144663D-02 -0.352540D-02
     19  0.556093D-02  0.180532D-02  0.459610D-03  0.212507D-02 -0.304211D-03
     20  0.126061D-01 -0.279464D-03 -0.830486D-03 -0.277351D-03  0.587612D-03
     21  0.388783D-02 -0.334356D-03  0.545756D-03 -0.392958D-03  0.184719D-02
     22 -0.144955D+00  0.125715D-03  0.124322D-02  0.113035D-02 -0.274495D-03
     23 -0.786087D-01 -0.921112D-05  0.100310D-02 -0.513523D-03  0.261448D-03
     24 -0.188635D+00 -0.685844D-03  0.142884D-02 -0.191953D-03  0.842903D-03
     25 -0.141316D-02 -0.804866D-03 -0.466204D-03 -0.255864D-03 -0.936815D-05
     26  0.783191D-02  0.122652D-03  0.100916D-03 -0.652384D-03 -0.803642D-03
     27 -0.929738D-02  0.267642D-03  0.816977D-04  0.152948D-03  0.163877D-04
               11            12            13            14            15 
     11  0.653958D-01
     12 -0.970622D-01  0.259365D+00
     13 -0.173528D-02 -0.420729D-03  0.721731D-01
     14 -0.101112D-01 -0.483320D-02  0.365437D-01 -0.117265D+00
     15  0.928628D-02  0.397234D-02  0.258961D-01  0.751657D-01  0.556696D-01
     16 -0.679512D-03 -0.406809D-02 -0.201679D-01 -0.713938D-01  0.231792D-01
     17  0.387064D-03  0.217177D-03 -0.480018D-02  0.345909D-01 -0.190003D-01
     18 -0.346430D-02 -0.327804D-02  0.796022D-02 -0.920144D-01  0.261002D-02
     19  0.586940D-03 -0.285243D-03  0.288221D-02  0.439951D-02 -0.122680D-02
     20 -0.498686D-03  0.857903D-03 -0.208387D-02  0.145433D-02 -0.129522D-02
     21  0.900918D-03  0.175534D-02  0.153801D-02  0.423698D-02  0.185742D-02
     22  0.876306D-03 -0.109325D-02  0.474061D-02 -0.320275D-02 -0.277756D-02
     23  0.805524D-03  0.199252D-03  0.389345D-03 -0.209572D-02  0.238729D-02
     24  0.594553D-03 -0.688667D-03 -0.318012D-02 -0.813481D-03  0.434037D-02
     25  0.121778D-03  0.263783D-03  0.489601D-03 -0.920364D-03 -0.494239D-03
     26  0.735661D-04 -0.167206D-03  0.321466D-03 -0.145872D-03  0.387181D-03
     27 -0.443726D-03 -0.591714D-03 -0.550841D-03 -0.451061D-03  0.175869D-03
               16            17            18            19            20 
     16  0.136789D+00
     17  0.246913D+00  0.937858D+00
     18  0.209491D-01 -0.187328D-01  0.107063D+00
     19 -0.272084D-01 -0.463014D-01  0.433283D-02  0.171545D-01
     20 -0.488929D-01 -0.370792D+00  0.985067D-01  0.428674D-01  0.374316D+00
     21  0.892910D-02  0.115689D+00 -0.548731D-01 -0.594366D-02 -0.112499D+00
     22 -0.559972D-02 -0.117694D-01 -0.229563D-01 -0.283185D-02  0.155771D-02
     23 -0.284841D-01 -0.519435D-02 -0.314348D-01  0.363378D-03  0.352071D-03
     24 -0.158877D-01 -0.101466D-01 -0.475978D-02  0.138375D-02 -0.638024D-04
     25 -0.105398D-02  0.266208D-02 -0.238448D-02  0.385344D-03 -0.191514D-03
     26  0.667464D-03  0.516175D-02  0.145505D-03 -0.183977D-03 -0.272918D-03
     27 -0.194942D-02  0.524704D-03 -0.232539D-02 -0.720623D-03  0.671240D-04
               21            22            23            24            25 
     21  0.496586D-01
     22  0.273716D-02  0.208979D+00
     23  0.564315D-03  0.157762D+00  0.537666D+00
     24 -0.139010D-02  0.179332D+00  0.207729D-01  0.226187D+00
     25 -0.548612D-03 -0.269465D-01 -0.497512D-01 -0.145385D-01  0.425376D-01
     26  0.129577D-03 -0.901958D-01 -0.411036D+00  0.273308D-01  0.862944D-01
     27  0.256549D-03 -0.104540D-02  0.765129D-01 -0.278253D-01  0.182148D-01
               26            27 
     26  0.422103D+00
     27 -0.348877D-01  0.375317D-01
 Leave Link  716 at Thu Jan  7 21:53:27 2021, MaxMem=    33554432 cpu:         0.0
 (Enter /apps/applications/gaussian/G09.D01/2/default/g09/l103.exe)

 GradGradGradGradGradGradGradGradGradGradGradGradGradGradGradGradGradGrad
 Berny optimization.
 Search for a saddle point.
 Step number   2 out of a maximum of  100
 All quantities printed in internal units (Hartrees-Bohrs-Radians)
[...]
 Total                   43.550             16.147             69.106
 Electronic               0.000              0.000              1.377
 Translational            0.889              2.981             38.044
 Rotational               0.889              2.981             23.963
 Vibrational             41.773             10.186              5.721
 Vibration     1          0.644              1.820              2.013
 Vibration     2          0.777              1.440              0.913
 Vibration     3          0.827              1.318              0.739
 Vibration     4          0.840              1.285              0.698
 Vibration     5          0.964              1.019              0.440
                       Q            Log10(Q)             Ln(Q)
 Total Bot       0.557351D-17        -17.253871        -39.728506
 Total V=0       0.334558D+13         12.524471         28.838660
 Vib (Bot)       0.427414D-29        -29.369152        -67.624971
 Vib (Bot)    1  0.928898D+00         -0.032032         -0.073757
 Vib (Bot)    2  0.426208D+00         -0.370379         -0.852828
 Vib (Bot)    3  0.359353D+00         -0.444479         -1.023450
 Vib (Bot)    4  0.344016D+00         -0.463422         -1.067068
 Vib (Bot)    5  0.244990D+00         -0.610852         -1.406539
 Vib (V=0)       0.256561D+01          0.409190          0.942195
 Vib (V=0)    1  0.155492D+01          0.191707          0.441423
 Vib (V=0)    2  0.115700D+01          0.063335          0.145833
 Vib (V=0)    3  0.111574D+01          0.047563          0.109517
 Vib (V=0)    4  0.110692D+01          0.044115          0.101578
 Vib (V=0)    5  0.105679D+01          0.023990          0.055240
 Electronic      0.200000D+01          0.301030          0.693147
 Translational   0.169300D+08          7.228656         16.644596
 Rotational      0.385118D+05          4.585594         10.558721
 
                                                    Gaussian input prepared by AS
 E
                                                             IR Spectrum
 
     3          3 3  3                                           1     1       1       1 1   11 1                                    
     5          2 1  0                                           8     7       4       2 2   00 0 9  8      6  6   44 4      2       
     2          4 8  9                                           5     0       7       7 0   95 0 7  8      7  0   87 1      1       
     3          2 9  5                                           9     0       5       1 0   16 4 1  0      5  6   40 4      4       
 
     X          X X  X                                           X     X       X       X X   XX X X  X      X  X   XX X      X       
     X                                                                 X               X          X  X      X      X         X       
                                                                       X               X          X  X      X                X       
                                                                       X               X                    X                X       
                                                                                       X                    X                X       
                                                                                       X                                     X       
                                                                                       X                                     X       
                                                                                       X                                             
                                                                                       X                                             
                                                                                       X                                             
                                                                                       X                                             
                                                                                       X                                             
                                                                                       X                                             
                                                                                       X                                             
                                                                                       X                                             
                                                                                       X                                             
                                                                                       X                                             
                                                                                       X                                             
                                                                                       X                                             
                                                                                       X                                             
 
 ***** Axes restored to original set *****
 -------------------------------------------------------------------
 Center     Atomic                   Forces (Hartrees/Bohr)
 Number     Number              X              Y              Z
 -------------------------------------------------------------------
      1        6          -0.000003234   -0.000003475   -0.000001280
      2        6           0.000001802    0.000001942    0.000000563
      3        1          -0.000001905   -0.000002666   -0.000000367
      4        1          -0.000001727   -0.000002014   -0.000001264
      5        1           0.000000418   -0.000001788    0.000000192
      6        6           0.000007560    0.000001787    0.000002297
      7        1          -0.000000821   -0.000001330    0.000003139
      8        8          -0.000007216   -0.000027551    0.000002886
      9        1           0.000005125    0.000035094   -0.000006165
 -------------------------------------------------------------------
 Cartesian Forces:  Max     0.000035094 RMS     0.000009124
 Force constants in Cartesian coordinates: 
                1             2             3             4             5 
      1  0.401728D+00
      2 -0.170587D+00  0.308581D+00
      3 -0.147357D+00 -0.121198D+00  0.442199D+00
      4 -0.938495D-01  0.451161D-01 -0.299899D-01  0.414747D+00
      5  0.344645D-01 -0.101369D+00  0.441911D-01  0.198618D+00  0.741996D+00
      6 -0.273006D-01  0.559685D-01 -0.121293D+00  0.225878D+00  0.734038D-01
      7 -0.188584D+00  0.127204D+00  0.681016D-01 -0.763950D-02  0.848335D-02
      8  0.139428D+00 -0.135780D+00 -0.565708D-01  0.594467D-02 -0.109704D-01
      9  0.753388D-01 -0.477511D-01 -0.816289D-01 -0.177574D-01  0.184842D-01
     10 -0.123855D+00 -0.322478D-01  0.123260D+00  0.127040D-01  0.823886D-02
     11 -0.438940D-01 -0.607111D-01  0.834483D-01 -0.670127D-02 -0.907622D-02
     12  0.115878D+00  0.739926D-01 -0.221416D+00  0.133799D-01  0.736739D-02
     13 -0.319860D-01 -0.209891D-01 -0.489523D-02 -0.287650D-01 -0.155092D-01
     14  0.523204D-01  0.960010D-01  0.277692D-01 -0.104861D-01  0.127156D-02
     15 -0.234131D-01 -0.531756D-01 -0.351680D-01 -0.320048D-01 -0.167752D-01
     16  0.381566D-01  0.602392D-01  0.394744D-02 -0.120059D+00 -0.149935D+00
     17 -0.175726D-01 -0.108974D+00  0.133889D-01 -0.168522D+00 -0.475586D+00
     18  0.236008D-01  0.992970D-01  0.217811D-01 -0.269824D-01 -0.597626D-01
     19  0.208933D-02  0.227873D-02 -0.382847D-02  0.568344D-02 -0.102291D-01
     20 -0.150442D-02 -0.710482D-02  0.140549D-02  0.109702D-01  0.560080D-03
     21 -0.286955D-02  0.558450D-02  0.450838D-03 -0.104984D-02 -0.104181D-01
     22 -0.555249D-02 -0.120840D-01 -0.932243D-02 -0.166249D+00 -0.332737D-01
     23  0.687656D-02  0.580532D-02  0.756255D-02 -0.789937D-01 -0.127500D+00
     24 -0.141122D-01 -0.133878D-01 -0.654657D-02 -0.117761D+00 -0.149582D-01
     25  0.185239D-02  0.106940D-02  0.839474D-04 -0.165724D-01 -0.408582D-01
     26  0.468114D-03  0.355254D-02  0.299900D-05  0.405409D-02 -0.193248D-01
     27  0.234053D-03  0.669637D-03  0.162160D-02 -0.137126D-01 -0.415325D-01
                6             7             8             9            10 
      6  0.395592D+00
      7  0.811694D-02  0.202326D+00
      8 -0.320645D-02 -0.142901D+00  0.141782D+00
      9  0.100353D-01 -0.768791D-01  0.504351D-01  0.799015D-01
     10 -0.169106D-01 -0.774555D-02 -0.839069D-02  0.163270D-01  0.122843D+00
     11  0.975683D-02  0.122385D-01  0.106675D-01 -0.157197D-01  0.368644D-01
     12 -0.121958D-01  0.389755D-02  0.581151D-02 -0.493048D-02 -0.127876D+00
     13 -0.307377D-01  0.369438D-02  0.620135D-02  0.369332D-02 -0.233257D-02
     14 -0.112400D-01 -0.704412D-02 -0.784071D-02 -0.386619D-02 -0.354191D-02
     15 -0.284767D-01  0.121831D-02  0.680968D-03 -0.875874D-03  0.573342D-02
     16 -0.316935D-01 -0.334996D-02 -0.197001D-02 -0.343805D-02 -0.110410D-02
     17 -0.803095D-01  0.149314D-02  0.179042D-02 -0.859380D-03 -0.106680D-02
     18 -0.717477D-01 -0.358292D-02  0.111284D-02 -0.183963D-02 -0.351100D-02
     19  0.432146D-02  0.210199D-02  0.759765D-03  0.209939D-02 -0.489714D-03
     20  0.130174D-01  0.362174D-04 -0.742257D-03  0.127002D-03  0.526266D-03
     21  0.558983D-02 -0.444316D-03  0.278872D-03 -0.459624D-03  0.197621D-02
     22 -0.129361D+00  0.257474D-04  0.132587D-02  0.863983D-03 -0.135540D-03
     23 -0.654745D-01  0.326091D-03  0.101516D-02 -0.203362D-03  0.327540D-03
     24 -0.167795D+00 -0.800239D-03  0.123186D-02 -0.435242D-03  0.110367D-02
     25 -0.231240D-02 -0.829363D-03 -0.398499D-03 -0.247940D-03  0.114842D-03
     26  0.808392D-02  0.163162D-03  0.780847D-04 -0.646605D-03 -0.709788D-03
     27 -0.970957D-02  0.372183D-03  0.226065D-03  0.232916D-03 -0.102524D-03
               11            12            13            14            15 
     11  0.636588D-01
     12 -0.842470D-01  0.237509D+00
     13 -0.132746D-02 -0.648841D-03  0.747216D-01
     14 -0.661137D-02 -0.480297D-02  0.356317D-01 -0.135992D+00
     15  0.772032D-02  0.391672D-02  0.326671D-01  0.830320D-01  0.520765D-01
     16  0.123704D-02 -0.336492D-02 -0.223290D-01 -0.651215D-01  0.181533D-01
     17  0.151581D-02  0.966905D-03 -0.180330D-02  0.472533D-01 -0.199606D-01
     18 -0.228285D-02 -0.382207D-02  0.216050D-02 -0.898642D-01  0.121270D-02
     19  0.214661D-04 -0.620938D-03  0.262808D-02  0.549161D-03  0.145617D-02
     20 -0.548666D-03  0.844329D-03 -0.178340D-02  0.348828D-02 -0.255093D-02
     21  0.933175D-03  0.193971D-02  0.204625D-02  0.215232D-04  0.343531D-02
     22  0.121889D-02 -0.103820D-02  0.415039D-02 -0.253620D-02 -0.314698D-02
     23  0.104736D-02  0.268234D-03 -0.534592D-03  0.216402D-02  0.779603D-03
     24  0.921794D-03 -0.308967D-03 -0.365271D-02 -0.142996D-02  0.391098D-02
     25  0.342532D-03  0.392810D-03  0.218069D-03  0.228579D-03 -0.663388D-03
     26  0.579170D-04 -0.200945D-03  0.113930D-03  0.265608D-03  0.249330D-03
     27 -0.530893D-03 -0.691783D-03 -0.632684D-03  0.380640D-03 -0.316065D-04
               16            17            18            19            20 
     16  0.150003D+00
     17  0.171745D+00  0.859948D+00
     18  0.514888D-01 -0.115664D-01  0.123872D+00
     19 -0.325146D-01  0.253037D-01 -0.200718D-01  0.221623D-01
     20  0.109196D-01 -0.327437D+00  0.897749D-01 -0.197939D-01  0.331664D+00
     21 -0.164304D-01  0.105684D+00 -0.649998D-01  0.151914D-01 -0.102466D+00
     22 -0.766798D-02 -0.116695D-01 -0.213700D-01 -0.211758D-02  0.887062D-03
     23 -0.280288D-01 -0.386645D-02 -0.263561D-01  0.112037D-02  0.276759D-03
     24 -0.172280D-01 -0.828490D-02 -0.258809D-02  0.214366D-02 -0.180840D-03
     25 -0.113474D-02  0.209223D-02 -0.173193D-02  0.456719D-03 -0.257659D-03
     26  0.914127D-03  0.535651D-02 -0.352583D-03 -0.101651D-04 -0.156861D-03
     27 -0.143461D-02  0.940578D-03 -0.186881D-02 -0.690911D-03  0.282637D-04
               21            22            23            24            25 
     21  0.556274D-01
     22  0.220897D-02  0.201029D+00
     23  0.768315D-04  0.137373D+00  0.541868D+00
     24 -0.189931D-02  0.166647D+00  0.190030D-01  0.197896D+00
     25 -0.628779D-03 -0.234830D-01 -0.384659D-01 -0.163398D-01  0.393775D-01
     26  0.304459D-03 -0.812410D-01 -0.420810D+00  0.170850D-01  0.762475D-01
     27  0.315614D-03 -0.548037D-02  0.643438D-01 -0.222336D-01  0.214474D-01
               26            27 
     26  0.430981D+00
     27 -0.245256D-01  0.323652D-01
 Leave Link  716 at Thu Jan  7 21:56:10 2021, MaxMem=    33554432 cpu:         0.0
 (Enter /apps/applications/gaussian/G09.D01/2/default/g09/l9999.exe)
 1\1\GINC-DC1S1B1B\Freq\UB3LYP\3-21G\C3H5O1(2)\CHMRSH\07-Jan-2021\0\\#P
  b3lyp/3-21G scf=qc opt(calcall, ts, noeigentest, cartesian,maxcycle=1
 00)\\Gaussian input prepared by ASE\\0,2\C,0.4539048287,-0.6780899908,
 0.6724026051\C,-0.2908738556,0.1499629,-0.3590723184\H,1.2501078308,-1
 .3352392222,0.3222442662\H,-0.0994460507,-1.0263587587,1.5447030494\H,
 0.9545067703,0.6348978348,0.893431466\C,0.2145876323,1.358395267,-0.10
 62747039\H,0.1212023901,2.3726671434,-0.4659281697\O,-1.2237305522,-0.
 2498465199,-1.2882239944\H,-1.3802589937,-1.2263886535,-1.2132822003\\
 Version=ES64L-G09RevD.01\State=2-A\HF=-191.3063236\S2=0.765975\S2-1=0.
 \S2A=0.750156\RMSD=0.000e+00\RMSF=9.124e-06\ZeroPoint=0.0647402\Therma
 l=0.0694013\Dipole=-0.0538655,-0.8312222,0.1511294\DipoleDeriv=-0.0684
 93,-0.0528865,-0.2518082,-0.1289333,0.0401024,-0.1090873,-0.232553,-0.
 0252757,-0.0786772,0.5870899,0.4921097,0.4254266,0.290152,0.3759706,0.
 24812,0.4765558,0.4711204,0.4962012,0.0319514,0.0689207,0.0633164,0.13
 48696,-0.0496352,0.0218819,0.0756316,-0.0042945,0.048357,0.0340408,-0.
 0049961,0.1111054,0.009424,-0.0041096,0.124058,0.0784591,0.0615277,0.0
 007142,0.0598028,-0.0187683,-0.0303717,-0.032444,-0.0283798,-0.0054878
 ,-0.0269302,0.0096165,0.0594626,-0.4030359,-0.2582985,0.1618411,-0.083
 2847,-0.2487756,-0.153218,0.1175285,-0.3463221,-0.2732449,0.1872704,0.
 0964821,-0.1240846,-0.0244692,0.0288571,0.0358866,-0.0934489,0.1694659
 ,0.1315808,-0.7990515,-0.3765896,-0.3355195,-0.1546792,-0.2520819,-0.2
 108158,-0.3918174,-0.4560904,-0.7261148,0.3704251,0.0540265,-0.0199054
 ,-0.0106353,0.1380519,0.0486624,-0.0034255,0.1202522,0.3417211\Polar=2
 5.104681,4.0433553,47.4266456,7.722536,-3.1788381,26.5156298\PG=C01 [X
 (C3H5O1)]\NImag=1\\0.40172841,-0.17058671,0.30858116,-0.14735673,-0.12
 119781,0.44219880,-0.09384954,0.04511607,-0.02998989,0.41474707,0.0344
 6452,-0.10136950,0.04419115,0.19861795,0.74199557,-0.02730060,0.055968
 50,-0.12129287,0.22587787,0.07340380,0.39559237,-0.18858424,0.12720426
 ,0.06810163,-0.00763950,0.00848335,0.00811694,0.20232650,0.13942813,-0
 .13578016,-0.05657076,0.00594467,-0.01097045,-0.00320645,-0.14290058,0
 .14178240,0.07533882,-0.04775109,-0.08162887,-0.01775738,0.01848419,0.
 01003529,-0.07687913,0.05043510,0.07990152,-0.12385454,-0.03224783,0.1
 2325973,0.01270402,0.00823886,-0.01691061,-0.00774555,-0.00839069,0.01
 632699,0.12284316,-0.04389404,-0.06071109,0.08344833,-0.00670127,-0.00
 907622,0.00975683,0.01223848,0.01066750,-0.01571966,0.03686436,0.06365
 876,0.11587849,0.07399259,-0.22141605,0.01337994,0.00736739,-0.0121958
 4,0.00389755,0.00581151,-0.00493048,-0.12787589,-0.08424704,0.23750876
 ,-0.03198596,-0.02098908,-0.00489523,-0.02876501,-0.01550918,-0.030737
 72,0.00369438,0.00620135,0.00369332,-0.00233257,-0.00132746,-0.0006488
 4,0.07472162,0.05232042,0.09600100,0.02776915,-0.01048613,0.00127156,-
 0.01124000,-0.00704412,-0.00784071,-0.00386619,-0.00354191,-0.00661137
 ,-0.00480297,0.03563173,-0.13599168,-0.02341310,-0.05317555,-0.0351680
 1,-0.03200481,-0.01677522,-0.02847669,0.00121831,0.00068097,-0.0008758
 7,0.00573342,0.00772032,0.00391672,0.03266712,0.08303205,0.05207647,0.
 03815663,0.06023919,0.00394744,-0.12005927,-0.14993461,-0.03169346,-0.
 00334996,-0.00197001,-0.00343805,-0.00110410,0.00123704,-0.00336492,-0
 .02232900,-0.06512153,0.01815326,0.15000304,-0.01757257,-0.10897444,0.
 01338890,-0.16852188,-0.47558600,-0.08030945,0.00149314,0.00179042,-0.
 00085938,-0.00106680,0.00151581,0.00096691,-0.00180330,0.04725329,-0.0
 1996056,0.17174499,0.85994770,0.02360082,0.09929703,0.02178112,-0.0269
 8244,-0.05976258,-0.07174770,-0.00358292,0.00111284,-0.00183963,-0.003
 51100,-0.00228285,-0.00382207,0.00216050,-0.08986423,0.00121270,0.0514
 8877,-0.01156640,0.12387222,0.00208933,0.00227873,-0.00382847,0.005683
 44,-0.01022905,0.00432146,0.00210199,0.00075976,0.00209939,-0.00048971
 ,0.00002147,-0.00062094,0.00262808,0.00054916,0.00145617,-0.03251461,0
 .02530366,-0.02007179,0.02216234,-0.00150442,-0.00710482,0.00140549,0.
 01097022,0.00056008,0.01301740,0.00003622,-0.00074226,0.00012700,0.000
 52627,-0.00054867,0.00084433,-0.00178340,0.00348828,-0.00255093,0.0109
 1965,-0.32743684,0.08977490,-0.01979393,0.33166432,-0.00286955,0.00558
 450,0.00045084,-0.00104984,-0.01041805,0.00558983,-0.00044432,0.000278
 87,-0.00045962,0.00197621,0.00093317,0.00193971,0.00204625,0.00002152,
 0.00343531,-0.01643038,0.10568431,-0.06499975,0.01519142,-0.10246562,0
 .05562738,-0.00555249,-0.01208403,-0.00932243,-0.16624876,-0.03327368,
 -0.12936148,0.00002575,0.00132587,0.00086398,-0.00013554,0.00121889,-0
 .00103820,0.00415039,-0.00253620,-0.00314698,-0.00766798,-0.01166946,-
 0.02137002,-0.00211758,0.00088706,0.00220897,0.20102919,0.00687656,0.0
 0580532,0.00756255,-0.07899371,-0.12750022,-0.06547453,0.00032609,0.00
 101516,-0.00020336,0.00032754,0.00104736,0.00026823,-0.00053459,0.0021
 6402,0.00077960,-0.02802885,-0.00386645,-0.02635614,0.00112037,0.00027
 676,0.00007683,0.13737250,0.54186831,-0.01411221,-0.01338780,-0.006546
 57,-0.11776088,-0.01495819,-0.16779482,-0.00080024,0.00123186,-0.00043
 524,0.00110367,0.00092179,-0.00030897,-0.00365271,-0.00142996,0.003910
 98,-0.01722805,-0.00828490,-0.00258809,0.00214366,-0.00018084,-0.00189
 931,0.16664652,0.01900302,0.19789559,0.00185239,0.00106940,0.00008395,
 -0.01657245,-0.04085816,-0.00231240,-0.00082936,-0.00039850,-0.0002479
 4,0.00011484,0.00034253,0.00039281,0.00021807,0.00022858,-0.00066339,-
 0.00113474,0.00209223,-0.00173193,0.00045672,-0.00025766,-0.00062878,-
 0.02348299,-0.03846591,-0.01633976,0.03937752,0.00046811,0.00355254,0.
 00000300,0.00405409,-0.01932482,0.00808392,0.00016316,0.00007808,-0.00
 064661,-0.00070979,0.00005792,-0.00020094,0.00011393,0.00026561,0.0002
 4933,0.00091413,0.00535651,-0.00035258,-0.00001017,-0.00015686,0.00030
 446,-0.08124095,-0.42081026,0.01708502,0.07624748,0.43098128,0.0002340
 5,0.00066964,0.00162160,-0.01371258,-0.04153248,-0.00970957,0.00037218
 ,0.00022606,0.00023292,-0.00010252,-0.00053089,-0.00069178,-0.00063268
 ,0.00038064,-0.00003161,-0.00143461,0.00094058,-0.00186881,-0.00069091
 ,0.00002826,0.00031561,-0.00548037,0.06434379,-0.02223357,0.02144744,-
 0.02452560,0.03236521\\0.00000323,0.00000347,0.00000128,-0.00000180,-0
 .00000194,-0.00000056,0.00000191,0.00000267,0.00000037,0.00000173,0.00
 000201,0.00000126,-0.00000042,0.00000179,-0.00000019,-0.00000756,-0.00
 000179,-0.00000230,0.00000082,0.00000133,-0.00000314,0.00000722,0.0000
 2755,-0.00000289,-0.00000513,-0.00003509,0.00000617\\\@


 ALL OUR THINKING ABOUT NATURE MUST NECESSARILY MOVE IN CIRCLES OR SPIRALS;
 FOR WE CAN ONLY UNDERSTAND NATURE IF WE THINK ABOUT HER, AND WE CAN ONLY
 THINK BECAUSE OUR BRAIN IS BUILT IN ACCORDANCE WITH NATURE'S LAWS.

                                             -- TIMOTHY FERRIS, "GALAXIES"
 Job cpu time:       0 days  0 hours  4 minutes 38.4 seconds.
 File lengths (MBytes):  RWF=      9 Int=      0 D2E=      0 Chk=      1 Scr=      1
 Normal termination of Gaussian 09 at Thu Jan  7 21:56:10 2021.
