 Entering Gaussian System, Link 0=g09
 Initial command:
 /apps/applications/gaussian/G09.D01/2/default/g09/l1.exe "/nobackup/chmrsh/Scratch/Gau-22227.inp" -scrdir="/nobackup/chmrsh/Scratch/"
 Entering Link 1 = /apps/applications/gaussian/G09.D01/2/default/g09/l1.exe PID=     22228.
  
 Copyright (c) 1988,1990,1992,1993,1995,1998,2003,2009,2013,
            Gaussian, Inc.  All Rights Reserved.
  
 This is part of the Gaussian(R) 09 program.  It is based on
 the Gaussian(R) 03 system (copyright 2003, Gaussian, Inc.),
 the Gaussian(R) 98 system (copyright 1998, Gaussian, Inc.),
 the Gaussian(R) 94 system (copyright 1995, Gaussian, Inc.),
 the Gaussian 92(TM) system (copyright 1992, Gaussian, Inc.),
 the Gaussian 90(TM) system (copyright 1990, Gaussian, Inc.),
 the Gaussian 88(TM) system (copyright 1988, Gaussian, Inc.),
 the Gaussian 86(TM) system (copyright 1986, Carnegie Mellon
 University), and the Gaussian 82(TM) system (copyright 1983,
 Carnegie Mellon University). Gaussian is a federally registered
 trademark of Gaussian, Inc.
  
 This software contains proprietary and confidential information,
 including trade secrets, belonging to Gaussian, Inc.
  
 This software is provided under written license and may be
 used, copied, transmitted, or stored only in accord with that
 written license.
  
 The following legend is applicable only to US Government
 contracts under FAR:
  
                    RESTRICTED RIGHTS LEGEND
  
 Use, reproduction and disclosure by the US Government is
 subject to restrictions as set forth in subparagraphs (a)
 and (c) of the Commercial Computer Software - Restricted
 Rights clause in FAR 52.227-19.
  
 Gaussian, Inc.
 340 Quinnipiac St., Bldg. 40, Wallingford CT 06492
  
  
 ---------------------------------------------------------------
 Warning -- This program may not be used in any manner that
 competes with the business of Gaussian, Inc. or will provide
 assistance to any competitor of Gaussian, Inc.  The licensee
 of this program is prohibited from giving any competitor of
 Gaussian, Inc. access to this program.  By using this program,
 the user acknowledges that Gaussian, Inc. is engaged in the
 business of creating and licensing software in the field of
 computational chemistry and represents and warrants to the
 licensee that it is not a competitor of Gaussian, Inc. and that
 it will not use this program in any manner prohibited above.
 ---------------------------------------------------------------
  

 Cite this work as:
 Gaussian 09, Revision D.01,
 M. J. Frisch, G. W. Trucks, H. B. Schlegel, G. E. Scuseria, 
 M. A. Robb, J. R. Cheeseman, G. Scalmani, V. Barone, B. Mennucci, 
 G. A. Petersson, H. Nakatsuji, M. Caricato, X. Li, H. P. Hratchian, 
 A. F. Izmaylov, J. Bloino, G. Zheng, J. L. Sonnenberg, M. Hada, 
 M. Ehara, K. Toyota, R. Fukuda, J. Hasegawa, M. Ishida, T. Nakajima, 
 Y. Honda, O. Kitao, H. Nakai, T. Vreven, J. A. Montgomery, Jr., 
 J. E. Peralta, F. Ogliaro, M. Bearpark, J. J. Heyd, E. Brothers, 
 K. N. Kudin, V. N. Staroverov, T. Keith, R. Kobayashi, J. Normand, 
 K. Raghavachari, A. Rendell, J. C. Burant, S. S. Iyengar, J. Tomasi, 
 M. Cossi, N. Rega, J. M. Millam, M. Klene, J. E. Knox, J. B. Cross, 
 V. Bakken, C. Adamo, J. Jaramillo, R. Gomperts, R. E. Stratmann, 
 O. Yazyev, A. J. Austin, R. Cammi, C. Pomelli, J. W. Ochterski, 
 R. L. Martin, K. Morokuma, V. G. Zakrzewski, G. A. Voth, 
 P. Salvador, J. J. Dannenberg, S. Dapprich, A. D. Daniels, 
 O. Farkas, J. B. Foresman, J. V. Ortiz, J. Cioslowski, 
 and D. J. Fox, Gaussian, Inc., Wallingford CT, 2013.
 
 ******************************************
 Gaussian 09:  ES64L-G09RevD.01 24-Apr-2013
                 7-Jan-2021 
 ******************************************
 ----------------------------------------------------------------------
 #P b3lyp/3-21G scf=qc opt(calcall, ts, noeigentest, cartesian,maxcycle
 =100)
 ----------------------------------------------------------------------
 1/5=1,6=100,10=4,11=1,14=-1,18=10,26=3,38=1/1,3;
 2/12=2,17=6,18=5,29=2,40=1/2;
 3/5=5,11=2,16=1,25=1,30=1,71=2,74=-5,140=1/1,2,3;
 4//1;
 5/5=2,8=3,38=5/8;
 8/6=4,10=90,11=11/1;
 11/6=1,8=1,9=11,15=111,16=1/1,2,10;
 10/6=1/2;
 6/7=2,8=2,9=2,10=2,18=1,28=1/1;
 7/7=1,10=1,25=1/1,2,3,16;
 1/5=1,6=100,10=4,11=1,14=-1,18=10,26=3/3(3);
 2/29=1/2;
 7/7=1,8=1,9=1,25=1,44=-1/16;
 99/12=1/99;
 2/29=1/2;
 3/5=5,11=2,16=1,25=1,30=1,71=2,74=-5,140=1/1,2,3;
 4/5=5,16=3,69=1/1;
 5/5=2,8=3,38=5/8;
 8/6=4,10=90,11=11/1;
 11/6=1,8=1,9=11,15=111,16=1/1,2,10;
 10/6=1/2;
 7/7=1,10=1,25=1/1,2,3,16;
 1/5=1,6=100,10=4,11=1,14=-1,18=10,26=3/3(-8);
 2/29=1/2;
 6/7=2,8=2,9=2,10=2,18=1,19=2,28=1/1;
 7/7=1,8=1,9=1,25=1,44=-1/16;
 99/12=1/99;
 Leave Link    1 at Thu Jan  7 22:07:57 2021, MaxMem=           0 cpu:         0.1
 (Enter /apps/applications/gaussian/G09.D01/2/default/g09/l101.exe)
 ------------------------------
 Gaussian input prepared by ASE
 ------------------------------
 Symbolic Z-matrix:
 Charge =  0 Multiplicity = 2
 C                     0.45391  -0.67809   0.6724 
 C                    -0.29087   0.14996  -0.35907 
 H                     1.25011  -1.33524   0.32224 
 H                    -0.09945  -1.02636   1.5447 
 H                     0.95451   0.6349    0.89343 
 C                     0.21459   1.3584   -0.10628 
 H                     0.1212    2.37267  -0.46593 
 O                    -1.22373  -0.24985  -1.28822 
 H                    -1.38026  -1.22639  -1.21328 
 
 NAtoms=      9 NQM=        9 NQMF=       0 NMMI=      0 NMMIF=      0
                NMic=       0 NMicF=      0.
                    Isotopes and Nuclear Properties:
 (Nuclear quadrupole moments (NQMom) in fm**2, nuclear magnetic moments (NMagM)
  in nuclear magnetons)

  Atom         1           2           3           4           5           6           7           8           9
 IAtWgt=          12          12           1           1           1          12           1          16           1
 AtmWgt=  12.0000000  12.0000000   1.0078250   1.0078250   1.0078250  12.0000000   1.0078250  15.9949146   1.0078250
 NucSpn=           0           0           1           1           1           0           1           0           1
 AtZEff=   0.0000000   0.0000000   0.0000000   0.0000000   0.0000000   0.0000000   0.0000000   0.0000000   0.0000000
 NQMom=    0.0000000   0.0000000   0.0000000   0.0000000   0.0000000   0.0000000   0.0000000   0.0000000   0.0000000
 NMagM=    0.0000000   0.0000000   2.7928460   2.7928460   2.7928460   0.0000000   2.7928460   0.0000000   2.7928460
 AtZNuc=   6.0000000   6.0000000   1.0000000   1.0000000   1.0000000   6.0000000   1.0000000   8.0000000   1.0000000
 Leave Link  101 at Thu Jan  7 22:07:57 2021, MaxMem=    33554432 cpu:         0.1
 (Enter /apps/applications/gaussian/G09.D01/2/default/g09/l103.exe)

 GradGradGradGradGradGradGradGradGradGradGradGradGradGradGradGradGradGrad
 Berny optimization.
 Initialization pass.
 No Z-matrix variables, so optimization will use Cartesian coordinates.
 Trust Radius=3.00D-01 FncErr=1.00D-07 GrdErr=1.00D-06
 Number of steps in this run=    100 maximum allowed number of steps=    100.
 Search for a saddle point of order  1.
 GradGradGradGradGradGradGradGradGradGradGradGradGradGradGradGradGradGrad

 Leave Link  103 at Thu Jan  7 22:07:57 2021, MaxMem=    33554432 cpu:         0.0
 (Enter /apps/applications/gaussian/G09.D01/2/default/g09/l202.exe)
 ---------------------------------------------------------------------------------------------------
                            Z-MATRIX (ANGSTROMS AND DEGREES)
   CD    Cent   Atom    N1       Length/X        N2       Alpha/Y        N3        Beta/Z          J
 ---------------------------------------------------------------------------------------------------
      1      1  C        0   0.453905         -0.678090          0.672403
      2      2  C        0  -0.290874          0.149963         -0.359072
      3      3  H        0   1.250108         -1.335239          0.322244
      4      4  H        0  -0.099446         -1.026359          1.544703
      5      5  H        0   0.954507          0.634898          0.893431
      6      6  C        0   0.214588          1.358395         -0.106275
      7      7  H        0   0.121202          2.372667         -0.465928
      8      8  O        0  -1.223731         -0.249847         -1.288224
      9      9  H        0  -1.380259         -1.226389         -1.213282
 ---------------------------------------------------------------------------------------------------
                         Z-Matrix orientation:                         
 ---------------------------------------------------------------------
 Center     Atomic      Atomic             Coordinates (Angstroms)
 Number     Number       Type             X           Y           Z
 ---------------------------------------------------------------------
      1          6           0        0.453905   -0.678090    0.672403
      2          6           0       -0.290874    0.149963   -0.359072
      3          1           0        1.250108   -1.335239    0.322244
      4          1           0       -0.099446   -1.026359    1.544703
      5          1           0        0.954507    0.634898    0.893431
      6          6           0        0.214588    1.358395   -0.106275
      7          1           0        0.121202    2.372667   -0.465928
      8          8           0       -1.223731   -0.249847   -1.288224
      9          1           0       -1.380259   -1.226389   -1.213282
 ---------------------------------------------------------------------
                    Distance matrix (angstroms):
                    1          2          3          4          5
     1  C    0.000000
     2  C    1.517995   0.000000
     3  H    1.090135   2.246028   0.000000
     4  H    1.090136   2.246049   1.846919   0.000000
     5  H    1.422460   1.831638   2.072456   2.072377   0.000000
     6  C    2.193373   1.334056   2.917464   2.917430   1.438868
     7  H    3.273165   2.263104   3.955276   3.955338   2.358409
     8  O    2.615705   1.376006   3.145085   3.145229   3.207353
     9  H    2.687117   1.952122   3.047707   3.047454   3.654280
                    6          7          8          9
     6  C    0.000000
     7  H    1.080194   0.000000
     8  O    2.460123   3.059836   0.000000
     9  H    3.232663   3.970658   0.991843   0.000000
 Stoichiometry    C3H5O(2)
 Framework group  C1[X(C3H5O)]
 Deg. of freedom    21
 Full point group                 C1      NOp   1
 Largest Abelian subgroup         C1      NOp   1
 Largest concise Abelian subgroup C1      NOp   1
                         Standard orientation:                         
 ---------------------------------------------------------------------
 Center     Atomic      Atomic             Coordinates (Angstroms)
 Number     Number       Type             X           Y           Z
 ---------------------------------------------------------------------
      1          6           0       -1.037723   -0.898190    0.000035
      2          6           0        0.116150    0.088160   -0.000029
      3          1           0       -1.249117   -1.437541    0.923512
      4          1           0       -1.249256   -1.437546   -0.923407
      5          1           0       -1.694679    0.363476   -0.000007
      6          6           0       -0.554620    1.241318   -0.000060
      7          1           0       -0.351937    2.302326    0.000108
      8          8           0        1.470380   -0.155672    0.000087
      9          1           0        1.639110   -1.133057   -0.000585
 ---------------------------------------------------------------------
 Rotational constants (GHZ):     12.2462958      8.1763604      5.0720554
 Leave Link  202 at Thu Jan  7 22:07:57 2021, MaxMem=    33554432 cpu:         0.0
 (Enter /apps/applications/gaussian/G09.D01/2/default/g09/l301.exe)
 Standard basis: 3-21G (6D, 7F)
 Ernie: Thresh=  0.10000D-02 Tol=  0.10000D-05 Strict=F.
 There are    46 symmetry adapted cartesian basis functions of A   symmetry.
 There are    46 symmetry adapted basis functions of A   symmetry.
    46 basis functions,    75 primitive gaussians,    46 cartesian basis functions
    16 alpha electrons       15 beta electrons
       nuclear repulsion energy       111.6923556933 Hartrees.
 IExCor=  402 DFT=T Ex+Corr=B3LYP ExCW=0 ScaHFX=  0.200000
 ScaDFX=  0.800000  0.720000  1.000000  0.810000 ScalE2=  1.000000  1.000000
 IRadAn=      0 IRanWt=     -1 IRanGd=            0 ICorTp=0 IEmpDi=  4
 NAtoms=    9 NActive=    9 NUniq=    9 SFac= 1.00D+00 NAtFMM=   60 NAOKFM=F Big=F
 Integral buffers will be    131072 words long.
 Raffenetti 2 integral format.
 Two-electron integral symmetry is turned on.
 Leave Link  301 at Thu Jan  7 22:07:57 2021, MaxMem=    33554432 cpu:         0.0
 (Enter /apps/applications/gaussian/G09.D01/2/default/g09/l302.exe)
 NPDir=0 NMtPBC=     1 NCelOv=     1 NCel=       1 NClECP=     1 NCelD=      1
         NCelK=      1 NCelE2=     1 NClLst=     1 CellRange=     0.0.
 One-electron integrals computed using PRISM.
 NBasis=    46 RedAO= T EigKep=  7.22D-03  NBF=    46
 NBsUse=    46 1.00D-06 EigRej= -1.00D+00 NBFU=    46
 Precomputing XC quadrature grid using
 IXCGrd= 4 IRadAn=           0 IRanWt=          -1 IRanGd=           0 AccXCQ= 0.00D+00.
 Generated NRdTot=       0 NPtTot=           0 NUsed=           0 NTot=          32
 NSgBfM=    46    46    46    46    46 MxSgAt=     9 MxSgA2=     9.
 Leave Link  302 at Thu Jan  7 22:07:57 2021, MaxMem=    33554432 cpu:         0.1
 (Enter /apps/applications/gaussian/G09.D01/2/default/g09/l303.exe)
 DipDrv:  MaxL=1.
 Leave Link  303 at Thu Jan  7 22:07:57 2021, MaxMem=    33554432 cpu:         0.0
 (Enter /apps/applications/gaussian/G09.D01/2/default/g09/l401.exe)
 ExpMin= 1.83D-01 ExpMax= 3.22D+02 ExpMxC= 3.22D+02 IAcc=1 IRadAn=         1 AccDes= 0.00D+00
 Harris functional with IExCor=  402 and IRadAn=       1 diagonalized for initial guess.
 HarFok:  IExCor=  402 AccDes= 0.00D+00 IRadAn=         1 IDoV= 1 UseB2=F ITyADJ=14
 ICtDFT=  3500011 ScaDFX=  1.000000  1.000000  1.000000  1.000000
 FoFCou: FMM=F IPFlag=           0 FMFlag=      100000 FMFlg1=           0
         NFxFlg=           0 DoJE=T BraDBF=F KetDBF=T FulRan=T
         wScrn=  0.000000 ICntrl=     500 IOpCl=  0 I1Cent=   200000004 NGrid=           0
         NMat0=    1 NMatS0=      1 NMatT0=    0 NMatD0=    1 NMtDS0=    0 NMtDT0=    0
 Petite list used in FoFCou.
 Harris En= -191.299205331356    
 JPrj=0 DoOrth=F DoCkMO=F.
 Initial guess <Sx>= 0.0000 <Sy>= 0.0000 <Sz>= 0.5000 <S**2>= 0.7500 S= 0.5000
 Leave Link  401 at Thu Jan  7 22:07:57 2021, MaxMem=    33554432 cpu:         0.2
 (Enter /apps/applications/gaussian/G09.D01/2/default/g09/l508.exe)
 Direct SCF.
 Tight linear equation convergence will be used.
 UB3LYP wavefunction.
 Quadratic Convergence SCF Method.
 Line search only if initial step raises energy.
 Integral symmetry usage will be decided dynamically.
 ReadGW:  IGet=1 IStart=         402 Next=         402 LGW=           0.
 Keep R1 and R2 ints in memory in canonical form, NReq=2054798.
 FoFCou: FMM=F IPFlag=           0 FMFlag=           0 FMFlg1=           0
         NFxFlg=           0 DoJE=F BraDBF=F KetDBF=F FulRan=T
         wScrn=  0.000000 ICntrl=     600 IOpCl=  0 I1Cent=           0 NGrid=           0
         NMat0=    1 NMatS0=   1081 NMatT0=    0 NMatD0=    1 NMtDS0=    0 NMtDT0=    0
 Symmetry not used in FoFCou.
 Iteration   1 EE= -191.219365376282                                    Grad=4.181D-01 Max rot=    3.3471 deg.
 Gradient too large for Newton-Raphson -- use scaled steepest descent instead.
 Alpha Gap=     0.211 HL deriv= 2.46D-05
  Beta Gap=     0.149 HL deriv= 4.20D-05
     ILin= 1 X=0.000D+00 Y=-1.912193653763D+02 DE= 0.00D+00 F= -3.73D-01
     ILin= 2 X=3.000D-01 Y=-1.912921183964D+02 DE=-7.28D-02 F= -1.12D-01
     ILin= 3 X=4.000D-01 Y=-1.912990253715D+02 DE=-7.97D-02 F= -2.60D-02
     ILin= 4 X=6.000D-01 Y=-1.912871567965D+02 DE=-6.78D-02 F=  1.44D-01
     An  expanding polynomial of degree  4 produced  0.4304
     Minimum is close to point  3 DX=  3.04D-02 DF= -3.97D-04 DXR=  7.07D-02 DFR=  4.98D-03 which will be used.
 Iteration   2 EE= -191.299025371451     Delta-E=       -0.079659995169 Grad=1.132D-01 Max rot=    1.0734 deg.
 Gradient too large for Newton-Raphson -- use scaled steepest descent instead.
 Alpha Gap=     0.245 HL deriv= 2.17D-05
  Beta Gap=     0.151 HL deriv= 2.76D-05
     ILin= 1 X=0.000D+00 Y=-1.912990253715D+02 DE= 0.00D+00 F= -2.39D-02
     ILin= 2 X=4.000D-01 Y=-1.913044221880D+02 DE=-5.40D-03 F= -3.13D-03
     ILin= 3 X=6.000D-01 Y=-1.913040186488D+02 DE=-4.99D-03 F=  7.15D-03
     An  expanding polynomial of degree  3 produced  0.4610
 Iteration   3 EE= -191.304517124415     Delta-E=       -0.005491752964 Grad=5.283D-02 Max rot=    0.6281 deg.
 Gradient too large for Newton-Raphson -- use scaled steepest descent instead.
 Alpha Gap=     0.242 HL deriv= 9.16D-07
  Beta Gap=     0.154 HL deriv= 2.38D-05
     ILin= 1 X=0.000D+00 Y=-1.913045171244D+02 DE= 0.00D+00 F= -4.98D-03
     ILin= 2 X=4.000D-01 Y=-1.913056456171D+02 DE=-1.13D-03 F= -6.63D-04
     ILin= 3 X=8.000D-01 Y=-1.913050517796D+02 DE=-5.35D-04 F=  3.63D-03
     An  expanding polynomial of degree  3 produced  0.4621
 Iteration   4 EE= -191.305666026336     Delta-E=       -0.001148901921 Grad=2.851D-02 Max rot=    0.3908 deg.
 Gradient too large for Newton-Raphson -- use scaled steepest descent instead.
 Alpha Gap=     0.245 HL deriv= 8.28D-06
  Beta Gap=     0.153 HL deriv= 1.38D-05
     ILin= 1 X=0.000D+00 Y=-1.913056660263D+02 DE= 0.00D+00 F= -1.49D-03
     ILin= 2 X=5.000D-01 Y=-1.913060413598D+02 DE=-3.75D-04 F= -1.57D-05
     Reject lnstep minimum 5.967D-01 FVal=-1.913060435590D+02 Lims=  0.00D+00  5.00D-01
     ILin= 3 X=9.000D-01 Y=-1.913058131405D+02 DE=-1.47D-04 F=  1.16D-03
     An  expanding polynomial of degree  3 produced  0.5057
     Minimum is close to point  2 DX=  5.67D-03 DF= -4.73D-08 DXR=  1.12D-02 DFR=  1.26D-04 which will be used.
 Iteration   5 EE= -191.306041359842     Delta-E=       -0.000375333506 Grad=1.624D-02 Max rot=    0.2621 deg.
 Gradient too large for Newton-Raphson -- use scaled steepest descent instead.
 Alpha Gap=     0.244 HL deriv= 8.42D-07
  Beta Gap=     0.155 HL deriv= 1.19D-05
     ILin= 1 X=0.000D+00 Y=-1.913060413598D+02 DE= 0.00D+00 F= -5.72D-04
     ILin= 2 X=5.000D-01 Y=-1.913061853507D+02 DE=-1.44D-04 F= -4.58D-06
     Reject lnstep minimum 5.903D-01 FVal=-1.913061859526D+02 Lims=  0.00D+00  5.00D-01
     ILin= 3 X=1.000D+00 Y=-1.913060462754D+02 DE=-4.92D-06 F=  5.61D-04
     An  expanding polynomial of degree  3 produced  0.5043
     Minimum is close to point  2 DX=  4.34D-03 DF= -1.07D-08 DXR=  8.61D-03 DFR=  7.41D-05 which will be used.
 Iteration   6 EE= -191.306185350662     Delta-E=       -0.000143990820 Grad=9.497D-03 Max rot=    0.1947 deg.
 QCNR:  CnvC1=3.07D-09 CnvC2=3.07D-08
 LinEq1:  Iter=  0 NonCon=     1 RMS=5.34D-04 Max=1.23D-02 NDo=     1
 AX will form     1 AO Fock derivatives at one time.
 LinEq1:  Iter=  1 NonCon=     1 RMS=7.15D-04 Max=1.68D-02 NDo=     1
 LinEq1:  Iter=  2 NonCon=     1 RMS=1.66D-04 Max=1.87D-03 NDo=     1
 LinEq1:  Iter=  3 NonCon=     1 RMS=5.30D-05 Max=5.14D-04 NDo=     1
 LinEq1:  Iter=  4 NonCon=     1 RMS=4.38D-05 Max=3.70D-04 NDo=     1
 LinEq1:  Iter=  5 NonCon=     1 RMS=1.35D-05 Max=1.12D-04 NDo=     1
 LinEq1:  Iter=  6 NonCon=     1 RMS=7.71D-06 Max=6.81D-05 NDo=     1
 LinEq1:  Iter=  7 NonCon=     1 RMS=3.88D-06 Max=5.28D-05 NDo=     1
 LinEq1:  Iter=  8 NonCon=     1 RMS=1.39D-06 Max=1.24D-05 NDo=     1
 LinEq1:  Iter=  9 NonCon=     1 RMS=5.29D-07 Max=3.97D-06 NDo=     1
 LinEq1:  Iter= 10 NonCon=     1 RMS=2.00D-07 Max=1.87D-06 NDo=     1
 LinEq1:  Iter= 11 NonCon=     1 RMS=5.59D-08 Max=5.84D-07 NDo=     1
 LinEq1:  Iter= 12 NonCon=     1 RMS=1.02D-08 Max=9.05D-08 NDo=     1
 LinEq1:  Iter= 13 NonCon=     0 RMS=2.09D-09 Max=1.90D-08 NDo=     1
 Linear equations converged to 3.074D-09 3.074D-08 after    13 iterations.
 Angle between quadratic step and gradient=  56.51 degrees.
     ILin= 1 X=0.000D+00 Y=-1.913061853507D+02 DE= 0.00D+00 F= -2.77D-04
     ILin= 2 X=1.000D+00 Y=-1.913063235912D+02 DE=-1.38D-04 F=  3.70D-07
     Accept linear search using points  1 and  2.
     An  expanding polynomial of degree  2 produced  0.9987
     Minimum is close to point  2 DX= -1.33D-03 DF= -2.47D-10 DXR=  1.34D-03 DFR=  1.79D-06 which will be used.
 Iteration   7 EE= -191.306323591154     Delta-E=       -0.000138240492 Grad=5.059D-05 Max rot=    0.0010 deg.
 QCNR:  CnvC1=5.06D-10 CnvC2=5.06D-09
 LinEq1:  Iter=  0 NonCon=     1 RMS=3.00D-06 Max=4.79D-05 NDo=     1
 LinEq1:  Iter=  1 NonCon=     1 RMS=3.67D-06 Max=8.36D-05 NDo=     1
 LinEq1:  Iter=  2 NonCon=     1 RMS=1.38D-06 Max=2.44D-05 NDo=     1
 LinEq1:  Iter=  3 NonCon=     1 RMS=1.13D-06 Max=1.24D-05 NDo=     1
 LinEq1:  Iter=  4 NonCon=     1 RMS=5.30D-07 Max=6.23D-06 NDo=     1
 LinEq1:  Iter=  5 NonCon=     1 RMS=3.03D-07 Max=2.72D-06 NDo=     1
 LinEq1:  Iter=  6 NonCon=     1 RMS=1.10D-07 Max=9.71D-07 NDo=     1
 LinEq1:  Iter=  7 NonCon=     1 RMS=5.95D-08 Max=6.08D-07 NDo=     1
 LinEq1:  Iter=  8 NonCon=     1 RMS=2.29D-08 Max=1.68D-07 NDo=     1
 LinEq1:  Iter=  9 NonCon=     1 RMS=7.41D-09 Max=6.03D-08 NDo=     1
 LinEq1:  Iter= 10 NonCon=     1 RMS=1.66D-09 Max=1.59D-08 NDo=     1
 LinEq1:  Iter= 11 NonCon=     0 RMS=4.03D-10 Max=2.89D-09 NDo=     1
 Linear equations converged to 5.059D-10 5.059D-09 after    11 iterations.
 Angle between quadratic step and gradient=  51.48 degrees.
     ILin= 1 X=0.000D+00 Y=-1.913063235912D+02 DE= 0.00D+00 F= -6.70D-09
     ILin= 2 X=1.000D+00 Y=-1.913063235945D+02 DE=-3.35D-09
 Iteration   8 EE= -191.306323594503     Delta-E=       -0.000000003349 Grad=2.900D-09 Max rot=    0.0000 deg.
 Rotation gradient small -- convergence achieved.
 SCF Done:  E(UB3LYP) =  -191.306323595     a.u. after    8 cycles
            Convg  =    0.2900D-08                    40 Fock formations.
              S**2 =  0.7660                  -V/T =  2.0087
 <Sx>= 0.0000 <Sy>= 0.0000 <Sz>= 0.5000 <S**2>= 0.7660 S= 0.5080
 <L.S>= 0.000000000000E+00
 Annihilation of the first spin contaminant:
 S**2 before annihilation     0.7660,   after     0.7502
 Leave Link  508 at Thu Jan  7 22:08:26 2021, MaxMem=    33554432 cpu:        28.2
 (Enter /apps/applications/gaussian/G09.D01/2/default/g09/l801.exe)
 DoSCS=F DFT=T ScalE2(SS,OS)=  1.000000  1.000000
 Range of M.O.s used for correlation:     1    46
 NBasis=    46 NAE=    16 NBE=    15 NFC=     0 NFV=     0
 NROrb=     46 NOA=    16 NOB=    15 NVA=    30 NVB=    31
 Leave Link  801 at Thu Jan  7 22:08:26 2021, MaxMem=    33554432 cpu:         0.0
 (Enter /apps/applications/gaussian/G09.D01/2/default/g09/l1101.exe)
 Using compressed storage, NAtomX=     9.
 Will process     10 centers per pass.
 Leave Link 1101 at Thu Jan  7 22:08:26 2021, MaxMem=    33554432 cpu:         0.1
 (Enter /apps/applications/gaussian/G09.D01/2/default/g09/l1102.exe)
 Symmetrizing basis deriv contribution to polar:
 IMax=3 JMax=2 DiffMx= 0.00D+00
 Leave Link 1102 at Thu Jan  7 22:08:26 2021, MaxMem=    33554432 cpu:         0.0
 (Enter /apps/applications/gaussian/G09.D01/2/default/g09/l1110.exe)
 Forming Gx(P) for the SCF density, NAtomX=     9.
 Integral derivatives from FoFJK, PRISM(SPDF).
 Do as many integral derivatives as possible in FoFJK.
 G2DrvN: MDV=      33554256.
 G2DrvN: will do    10 centers at a time, making    1 passes.
 Calling FoFCou, ICntrl=  3107 FMM=F I1Cent=   0 AccDes= 0.00D+00.
 FoFJK:  IHMeth= 1 ICntrl=    3107 DoSepK=F KAlg= 0 I1Cent=   0 FoldK=F
 IRaf=         0 NMat=   1 IRICut=       1 DoRegI=T DoRafI=F ISym2E= 0.
 FoFCou: FMM=F IPFlag=           0 FMFlag=      100000 FMFlg1=           0
         NFxFlg=           0 DoJE=F BraDBF=F KetDBF=F FulRan=T
         wScrn=  0.000000 ICntrl=    3107 IOpCl=  1 I1Cent=           0 NGrid=           0
         NMat0=    1 NMatS0=      1 NMatT0=    0 NMatD0=    1 NMtDS0=    0 NMtDT0=    0
 Symmetry not used in FoFCou.
 End of G2Drv F.D. properties file   721 does not exist.
 End of G2Drv F.D. properties file   722 does not exist.
 End of G2Drv F.D. properties file   788 does not exist.
 Leave Link 1110 at Thu Jan  7 22:08:37 2021, MaxMem=    33554432 cpu:        10.2
 (Enter /apps/applications/gaussian/G09.D01/2/default/g09/l1002.exe)
 Minotr:  UHF open shell wavefunction.
          IDoAtm=111111111
          Direct CPHF calculation.
          Differentiating once with respect to electric field.
                with respect to dipole field.
          Differentiating once with respect to nuclear coordinates.
          Requested convergence is 1.0D-08 RMS, and 1.0D-07 maximum.
          Secondary convergence is 1.0D-12 RMS, and 1.0D-12 maximum.
          NewPWx=T KeepS1=F KeepF1=F KeepIn=T MapXYZ=F SortEE=F KeepMc=T.
          MDV=      33554246 using IRadAn=       2.
 Generate precomputed XC quadrature information.
 Keep R1 and R2 ints in memory in canonical form, NReq=2035813.
 FoFCou: FMM=F IPFlag=           0 FMFlag=           0 FMFlg1=           0
         NFxFlg=           0 DoJE=F BraDBF=F KetDBF=F FulRan=T
         wScrn=  0.000000 ICntrl=     600 IOpCl=  0 I1Cent=           0 NGrid=           0
         NMat0=    1 NMatS0=   1081 NMatT0=    0 NMatD0=    1 NMtDS0=    0 NMtDT0=    0
 Symmetry not used in FoFCou.
          Solving linear equations simultaneously, MaxMat=       0.
          There are    30 degrees of freedom in the 1st order CPHF.  IDoFFX=6 NUNeed=     3.
     27 vectors produced by pass  0 Test12= 3.15D-15 3.33D-09 XBig12= 1.03D+02 3.89D+00.
 AX will form    27 AO Fock derivatives at one time.
     27 vectors produced by pass  1 Test12= 3.15D-15 3.33D-09 XBig12= 1.15D+01 6.95D-01.
     27 vectors produced by pass  2 Test12= 3.15D-15 3.33D-09 XBig12= 1.65D-01 7.48D-02.
     27 vectors produced by pass  3 Test12= 3.15D-15 3.33D-09 XBig12= 6.88D-04 4.82D-03.
     27 vectors produced by pass  4 Test12= 3.15D-15 3.33D-09 XBig12= 1.50D-06 2.19D-04.
     27 vectors produced by pass  5 Test12= 3.15D-15 3.33D-09 XBig12= 3.71D-09 1.29D-05.
      8 vectors produced by pass  6 Test12= 3.15D-15 3.33D-09 XBig12= 7.18D-12 5.06D-07.
      2 vectors produced by pass  7 Test12= 3.15D-15 3.33D-09 XBig12= 1.31D-14 2.16D-08.
 InvSVY:  IOpt=1 It=  1 EMax= 5.33D-15
 Solved reduced A of dimension   172 with    30 vectors.
 FullF1:  Do perturbations    1 to     3.
 Isotropic polarizability for W=    0.000000       33.02 Bohr**3.
 End of Minotr F.D. properties file   721 does not exist.
 End of Minotr F.D. properties file   722 does not exist.
 End of Minotr F.D. properties file   788 does not exist.
 Leave Link 1002 at Thu Jan  7 22:08:48 2021, MaxMem=    33554432 cpu:        10.0
 (Enter /apps/applications/gaussian/G09.D01/2/default/g09/l601.exe)
 Copying SCF densities to generalized density rwf, IOpCl= 1 IROHF=0.

 **********************************************************************

            Population analysis using the SCF density.

 **********************************************************************

 Orbital symmetries:
 Alpha Orbitals:
       Occupied  (A) (A) (A) (A) (A) (A) (A) (A) (A) (A) (A) (A)
                 (A) (A) (A) (A)
       Virtual   (A) (A) (A) (A) (A) (A) (A) (A) (A) (A) (A) (A)
                 (A) (A) (A) (A) (A) (A) (A) (A) (A) (A) (A) (A)
                 (A) (A) (A) (A) (A) (A)
 Beta  Orbitals:
       Occupied  (A) (A) (A) (A) (A) (A) (A) (A) (A) (A) (A) (A)
                 (A) (A) (A)
       Virtual   (A) (A) (A) (A) (A) (A) (A) (A) (A) (A) (A) (A)
                 (A) (A) (A) (A) (A) (A) (A) (A) (A) (A) (A) (A)
                 (A) (A) (A) (A) (A) (A) (A)
 The electronic state is 2-A.
 Alpha  occ. eigenvalues --  -19.07023 -10.19018 -10.14577 -10.12295  -1.05546
 Alpha  occ. eigenvalues --   -0.81724  -0.66900  -0.57863  -0.51421  -0.44855
 Alpha  occ. eigenvalues --   -0.44189  -0.38893  -0.36260  -0.32993  -0.22743
 Alpha  occ. eigenvalues --   -0.20021
 Alpha virt. eigenvalues --    0.04277   0.06664   0.13416   0.14923   0.18265
 Alpha virt. eigenvalues --    0.20080   0.21908   0.34238   0.40690   0.69276
 Alpha virt. eigenvalues --    0.70973   0.72083   0.73335   0.80451   0.80617
 Alpha virt. eigenvalues --    0.81871   0.88750   0.93485   0.96782   1.00449
 Alpha virt. eigenvalues --    1.05030   1.10890   1.24324   1.41306   1.50569
 Alpha virt. eigenvalues --    1.60924   1.71278   1.80964   1.95536   3.15158
  Beta  occ. eigenvalues --  -19.07047 -10.19182 -10.13635 -10.11222  -1.05613
  Beta  occ. eigenvalues --   -0.80153  -0.65023  -0.57054  -0.50199  -0.44321
  Beta  occ. eigenvalues --   -0.43556  -0.36576  -0.36350  -0.32198  -0.21788
  Beta virt. eigenvalues --   -0.06962   0.04971   0.06739   0.14502   0.16175
  Beta virt. eigenvalues --    0.19394   0.20725   0.22389   0.35061   0.42001
  Beta virt. eigenvalues --    0.69672   0.72719   0.73291   0.74214   0.81248
  Beta virt. eigenvalues --    0.82026   0.83769   0.89233   0.94365   0.96967
  Beta virt. eigenvalues --    1.01142   1.05364   1.11403   1.24719   1.42535
  Beta virt. eigenvalues --    1.50418   1.61140   1.72521   1.82059   1.96203
  Beta virt. eigenvalues --    3.15204
          Condensed to atoms (all electrons):
               1          2          3          4          5          6
     1  C    5.780571   0.235257   0.342117   0.342123   0.141545  -0.267515
     2  C    0.235257   5.104379  -0.041739  -0.041739  -0.109275   0.414849
     3  H    0.342117  -0.041739   0.525572  -0.032562  -0.004438   0.000751
     4  H    0.342123  -0.041739  -0.032562   0.525574  -0.004441   0.000748
     5  H    0.141545  -0.109275  -0.004438  -0.004441   0.552089   0.208378
     6  C   -0.267515   0.414849   0.000751   0.000748   0.208378   5.641293
     7  H    0.008797  -0.044862  -0.000147  -0.000147  -0.001780   0.357898
     8  O   -0.046767   0.301524   0.000545   0.000544   0.003891  -0.058068
     9  H   -0.007073  -0.034790   0.000573   0.000576  -0.000359   0.006109
               7          8          9
     1  C    0.008797  -0.046767  -0.007073
     2  C   -0.044862   0.301524  -0.034790
     3  H   -0.000147   0.000545   0.000573
     4  H   -0.000147   0.000544   0.000576
     5  H   -0.001780   0.003891  -0.000359
     6  C    0.357898  -0.058068   0.006109
     7  H    0.491467  -0.000553  -0.000072
     8  O   -0.000553   8.109900   0.254708
     9  H   -0.000072   0.254708   0.419941
          Atomic-Atomic Spin Densities.
               1          2          3          4          5          6
     1  C    0.878420  -0.001947  -0.021592  -0.021605  -0.019044  -0.198079
     2  C   -0.001947  -0.116050   0.002261   0.002260   0.005541  -0.052619
     3  H   -0.021592   0.002261  -0.015976   0.005605   0.001972   0.005470
     4  H   -0.021605   0.002260   0.005605  -0.015956   0.001973   0.005474
     5  H   -0.019044   0.005541   0.001972   0.001973  -0.130002   0.017334
     6  C   -0.198079  -0.052619   0.005470   0.005474   0.017334   0.921710
     7  H    0.005171   0.005455  -0.000078  -0.000078  -0.001525  -0.026894
     8  O   -0.000611   0.015105  -0.000044  -0.000043  -0.000464  -0.002199
     9  H   -0.000464   0.000231  -0.000097  -0.000098   0.000035   0.000014
               7          8          9
     1  C    0.005171  -0.000611  -0.000464
     2  C    0.005455   0.015105   0.000231
     3  H   -0.000078  -0.000044  -0.000097
     4  H   -0.000078  -0.000043  -0.000098
     5  H   -0.001525  -0.000464   0.000035
     6  C   -0.026894  -0.002199   0.000014
     7  H    0.043450  -0.000388   0.000019
     8  O   -0.000388  -0.019754   0.000877
     9  H    0.000019   0.000877   0.000303
 Mulliken charges and spin densities:
               1          2
     1  C   -0.529056   0.620249
     2  C    0.216396  -0.139764
     3  H    0.209328  -0.022480
     4  H    0.209323  -0.022469
     5  H    0.214391  -0.124181
     6  C   -0.304444   0.670212
     7  H    0.189399   0.025131
     8  O   -0.565725  -0.007520
     9  H    0.360387   0.000821
 Sum of Mulliken charges =   0.00000   1.00000
 Mulliken charges and spin densities with hydrogens summed into heavy atoms:
               1          2
     1  C    0.103987   0.451120
     2  C    0.216396  -0.139764
     6  C   -0.115045   0.695343
     8  O   -0.205338  -0.006699
 APT charges:
               1
     1  C   -0.035689
     2  C    0.486420
     3  H    0.010224
     4  H    0.010215
     5  H    0.030295
     6  C   -0.308352
     7  H    0.115903
     8  O   -0.592416
     9  H    0.283399
 Sum of APT charges =   0.00000
 APT charges with hydrogens summed into heavy atoms:
               1
     1  C    0.015046
     2  C    0.486420
     6  C   -0.192449
     8  O   -0.309017
 Electronic spatial extent (au):  <R**2>=            273.0850
 Charge=              0.0000 electrons
 Dipole moment (field-independent basis, Debye):
    X=              0.0673    Y=             -2.1507    Z=             -0.0010  Tot=              2.1518
 Quadrupole moment (field-independent basis, Debye-Ang):
   XX=            -25.9404   YY=            -20.7447   ZZ=            -25.8568
   XY=             -2.1692   XZ=             -0.0025   YZ=              0.0020
 Traceless Quadrupole moment (field-independent basis, Debye-Ang):
   XX=             -1.7598   YY=              3.4359   ZZ=             -1.6762
   XY=             -2.1692   XZ=             -0.0025   YZ=              0.0020
 Octapole moment (field-independent basis, Debye-Ang**2):
  XXX=             10.4084  YYY=             -0.6188  ZZZ=              0.0005  XYY=              6.9573
  XXY=             -7.4458  XXZ=             -0.0039  XZZ=              2.9415  YZZ=             -3.6659
  YYZ=             -0.0003  XYZ=              0.0020
 Hexadecapole moment (field-independent basis, Debye-Ang**3):
 XXXX=           -177.5315 YYYY=           -124.9544 ZZZZ=            -30.8431 XXXY=            -10.7895
 XXXZ=             -0.0065 YYYX=             -5.6952 YYYZ=              0.0049 ZZZX=             -0.0011
 ZZZY=              0.0013 XXYY=            -46.6049 XXZZ=            -34.2190 YYZZ=            -29.2328
 XXYZ=              0.0049 YYXZ=             -0.0031 ZZXY=              1.7626
 N-N= 1.116923556933D+02 E-N=-6.694211335283D+02  KE= 1.896553295453D+02
  Exact polarizability:  33.866  -2.118  47.995   0.000   0.001  17.185
 Approx polarizability:  51.437  -9.749  79.423   0.003   0.000  21.298
                          Isotropic Fermi Contact Couplings
        Atom                 a.u.       MegaHertz       Gauss      10(-4) cm-1
     1  C(13)              0.20882     234.75278      83.76563      78.30510
     2  C(13)             -0.02950     -33.16527     -11.83419     -11.06274
     3  H(1)              -0.00545     -24.36885      -8.69541      -8.12857
     4  H(1)              -0.00545     -24.35481      -8.69040      -8.12389
     5  H(1)              -0.03452    -154.29320     -55.05565     -51.46667
     6  C(13)              0.31724     356.63497     127.25622     118.96062
     7  H(1)               0.01540      68.83398      24.56168      22.96054
     8  O(17)              0.00207      -1.25213      -0.44679      -0.41766
     9  H(1)               0.00120       5.37985       1.91966       1.79452
 --------------------------------------------------------
       Center         ----  Spin Dipole Couplings  ----
                      3XX-RR        3YY-RR        3ZZ-RR
 --------------------------------------------------------
     1   Atom        0.007296      0.273708     -0.281004
     2   Atom        0.057868      0.039545     -0.097413
     3   Atom       -0.025230      0.001469      0.023762
     4   Atom       -0.025225      0.001468      0.023757
     5   Atom       -0.022474      0.109423     -0.086949
     6   Atom        0.386857     -0.209027     -0.177830
     7   Atom       -0.016412      0.052585     -0.036173
     8   Atom        0.028064      0.052205     -0.080269
     9   Atom        0.007935     -0.003298     -0.004637
 --------------------------------------------------------
                        XY            XZ            YZ
 --------------------------------------------------------
     1   Atom       -0.390009     -0.000025      0.000031
     2   Atom       -0.012997     -0.000002     -0.000013
     3   Atom       -0.006519     -0.017159     -0.033703
     4   Atom       -0.006514      0.017168      0.033703
     5   Atom        0.029097      0.000002     -0.000005
     6   Atom        0.240973     -0.000123     -0.000054
     7   Atom        0.011895     -0.000005      0.000015
     8   Atom       -0.006246      0.000002     -0.000004
     9   Atom       -0.001106     -0.000002      0.000002
 --------------------------------------------------------


 ---------------------------------------------------------------------------------
              Anisotropic Spin Dipole Couplings in Principal Axis System
 ---------------------------------------------------------------------------------

       Atom             a.u.   MegaHertz   Gauss  10(-4) cm-1        Axes

              Baa    -0.2810   -37.708   -13.455   -12.578  0.0002  0.0001  1.0000
     1 C(13)  Bbb    -0.2716   -36.450   -13.006   -12.158  0.8134  0.5817 -0.0002
              Bcc     0.5526    74.158    26.461    24.736 -0.5817  0.8134  0.0000
 
              Baa    -0.0974   -13.072    -4.664    -4.360  0.0000  0.0001  1.0000
     2 C(13)  Bbb     0.0328     4.402     1.571     1.468  0.4604  0.8877 -0.0001
              Bcc     0.0646     8.670     3.094     2.892  0.8877 -0.4604  0.0000
 
              Baa    -0.0401   -21.378    -7.628    -7.131  0.7434  0.4879  0.4575
     3 H(1)   Bbb    -0.0095    -5.052    -1.803    -1.685 -0.6541  0.6732  0.3450
              Bcc     0.0495    26.431     9.431     8.816 -0.1396 -0.5557  0.8196
 
              Baa    -0.0401   -21.378    -7.628    -7.131  0.7434  0.4879 -0.4576
     4 H(1)   Bbb    -0.0095    -5.052    -1.803    -1.685 -0.6541  0.6732 -0.3449
              Bcc     0.0495    26.431     9.431     8.816  0.1398  0.5557  0.8196
 
              Baa    -0.0869   -46.392   -16.554   -15.475 -0.0001  0.0000  1.0000
     5 H(1)   Bbb    -0.0286   -15.264    -5.446    -5.091  0.9785 -0.2063  0.0001
              Bcc     0.1156    61.656    22.000    20.566  0.2063  0.9785  0.0000
 
              Baa    -0.2943   -39.489   -14.091   -13.172 -0.3335  0.9427  0.0001
     6 C(13)  Bbb    -0.1778   -23.863    -8.515    -7.960  0.0002  0.0000  1.0000
              Bcc     0.4721    63.353    22.606    21.132  0.9427  0.3335 -0.0002
 
              Baa    -0.0362   -19.300    -6.887    -6.438  0.0004 -0.0002  1.0000
     7 H(1)   Bbb    -0.0184    -9.820    -3.504    -3.276  0.9863 -0.1652 -0.0004
              Bcc     0.0546    29.120    10.391     9.713  0.1652  0.9863  0.0002
 
              Baa    -0.0803     5.808     2.073     1.937  0.0000  0.0000  1.0000
     8 O(17)  Bbb     0.0265    -1.921    -0.685    -0.641  0.9716  0.2365  0.0000
              Bcc     0.0537    -3.887    -1.387    -1.297 -0.2365  0.9716  0.0000
 
              Baa    -0.0046    -2.474    -0.883    -0.825  0.0001 -0.0011  1.0000
     9 H(1)   Bbb    -0.0034    -1.817    -0.648    -0.606  0.0971  0.9953  0.0011
              Bcc     0.0080     4.292     1.531     1.431  0.9953 -0.0971 -0.0002
 

 ---------------------------------------------------------------------------------

 No NMR shielding tensors so no spin-rotation constants.
 Leave Link  601 at Thu Jan  7 22:08:48 2021, MaxMem=    33554432 cpu:         0.1
 (Enter /apps/applications/gaussian/G09.D01/2/default/g09/l701.exe)
 Compute integral second derivatives.
 ... and contract with generalized density number  0.
 Leave Link  701 at Thu Jan  7 22:08:48 2021, MaxMem=    33554432 cpu:         0.1
 (Enter /apps/applications/gaussian/G09.D01/2/default/g09/l702.exe)
 L702 exits ... SP integral derivatives will be done elsewhere.
 Leave Link  702 at Thu Jan  7 22:08:48 2021, MaxMem=    33554432 cpu:         0.0
 (Enter /apps/applications/gaussian/G09.D01/2/default/g09/l703.exe)
 Compute integral second derivatives, UseDBF=F ICtDFT=           0.
 Integral derivatives from FoFJK, PRISM(SPDF).
 Calling FoFJK, ICntrl=    100127 FMM=F ISym2X=0 I1Cent= 0 IOpClX= 1 NMat=1 NMatS=1 NMatT=0.
 FoFJK:  IHMeth= 1 ICntrl=  100127 DoSepK=F KAlg= 0 I1Cent=   0 FoldK=F
 IRaf=         0 NMat=   1 IRICut=       1 DoRegI=T DoRafI=F ISym2E= 0.
 FoFCou: FMM=F IPFlag=           0 FMFlag=      100000 FMFlg1=         800
         NFxFlg=           0 DoJE=F BraDBF=F KetDBF=F FulRan=T
         wScrn=  0.000000 ICntrl=  100127 IOpCl=  1 I1Cent=           0 NGrid=           0
         NMat0=    1 NMatS0=      1 NMatT0=    0 NMatD0=    1 NMtDS0=    0 NMtDT0=    0
 Symmetry not used in FoFCou.
 Leave Link  703 at Thu Jan  7 22:08:57 2021, MaxMem=    33554432 cpu:         8.9
 (Enter /apps/applications/gaussian/G09.D01/2/default/g09/l716.exe)
 Dipole        = 2.64633503D-02-8.46150343D-01-3.77273396D-04
 Polarizability= 3.38662677D+01-2.11778957D+00 4.79954932D+01
                 8.46589022D-05 1.22064220D-03 1.71851888D+01
 ***** Axes restored to original set *****
 -------------------------------------------------------------------
 Center     Atomic                   Forces (Hartrees/Bohr)
 Number     Number              X              Y              Z
 -------------------------------------------------------------------
      1        6          -0.000003272   -0.000003465   -0.000001567
      2        6           0.000001555    0.000001450    0.000000258
      3        1          -0.000001934   -0.000002643   -0.000000310
      4        1          -0.000001756   -0.000002057   -0.000001131
      5        1           0.000000448   -0.000001700    0.000000220
      6        6           0.000007571    0.000002035    0.000002366
      7        1          -0.000000788   -0.000001352    0.000003136
      8        8          -0.000006942   -0.000027205    0.000003160
      9        1           0.000005118    0.000034937   -0.000006132
 -------------------------------------------------------------------
 Cartesian Forces:  Max     0.000034937 RMS     0.000009056
 Force constants in Cartesian coordinates: 
                1             2             3             4             5 
      1  0.401728D+00
      2 -0.170586D+00  0.308581D+00
      3 -0.147357D+00 -0.121198D+00  0.442199D+00
      4 -0.938495D-01  0.451160D-01 -0.299898D-01  0.414747D+00
      5  0.344644D-01 -0.101369D+00  0.441911D-01  0.198618D+00  0.741996D+00
      6 -0.273005D-01  0.559684D-01 -0.121293D+00  0.225877D+00  0.734037D-01
      7 -0.188584D+00  0.127204D+00  0.681017D-01 -0.763952D-02  0.848338D-02
      8  0.139428D+00 -0.135780D+00 -0.565708D-01  0.594468D-02 -0.109704D-01
      9  0.753389D-01 -0.477511D-01 -0.816290D-01 -0.177574D-01  0.184842D-01
     10 -0.123855D+00 -0.322480D-01  0.123260D+00  0.127040D-01  0.823885D-02
     11 -0.438942D-01 -0.607112D-01  0.834485D-01 -0.670128D-02 -0.907624D-02
     12  0.115879D+00  0.739928D-01 -0.221416D+00  0.133799D-01  0.736738D-02
     13 -0.319859D-01 -0.209891D-01 -0.489522D-02 -0.287650D-01 -0.155092D-01
     14  0.523204D-01  0.960010D-01  0.277691D-01 -0.104862D-01  0.127156D-02
     15 -0.234131D-01 -0.531756D-01 -0.351680D-01 -0.320048D-01 -0.167752D-01
     16  0.381566D-01  0.602392D-01  0.394740D-02 -0.120059D+00 -0.149935D+00
     17 -0.175726D-01 -0.108974D+00  0.133889D-01 -0.168522D+00 -0.475587D+00
     18  0.236008D-01  0.992971D-01  0.217811D-01 -0.269825D-01 -0.597627D-01
     19  0.208933D-02  0.227872D-02 -0.382847D-02  0.568343D-02 -0.102291D-01
     20 -0.150443D-02 -0.710482D-02  0.140550D-02  0.109702D-01  0.560069D-03
     21 -0.286956D-02  0.558449D-02  0.450843D-03 -0.104982D-02 -0.104180D-01
     22 -0.555248D-02 -0.120840D-01 -0.932242D-02 -0.166248D+00 -0.332734D-01
     23  0.687655D-02  0.580530D-02  0.756253D-02 -0.789935D-01 -0.127500D+00
     24 -0.141122D-01 -0.133878D-01 -0.654656D-02 -0.117760D+00 -0.149579D-01
     25  0.185239D-02  0.106940D-02  0.839455D-04 -0.165724D-01 -0.408581D-01
     26  0.468112D-03  0.355253D-02  0.299956D-05  0.405411D-02 -0.193248D-01
     27  0.234052D-03  0.669637D-03  0.162160D-02 -0.137126D-01 -0.415325D-01
                6             7             8             9            10 
      6  0.395591D+00
      7  0.811694D-02  0.202326D+00
      8 -0.320645D-02 -0.142900D+00  0.141782D+00
      9  0.100353D-01 -0.768792D-01  0.504351D-01  0.799016D-01
     10 -0.169106D-01 -0.774554D-02 -0.839070D-02  0.163270D-01  0.122843D+00
     11  0.975684D-02  0.122385D-01  0.106675D-01 -0.157197D-01  0.368645D-01
     12 -0.121958D-01  0.389754D-02  0.581152D-02 -0.493048D-02 -0.127876D+00
     13 -0.307377D-01  0.369438D-02  0.620135D-02  0.369333D-02 -0.233257D-02
     14 -0.112400D-01 -0.704413D-02 -0.784071D-02 -0.386620D-02 -0.354188D-02
     15 -0.284767D-01  0.121831D-02  0.680970D-03 -0.875869D-03  0.573341D-02
     16 -0.316935D-01 -0.334996D-02 -0.197001D-02 -0.343806D-02 -0.110410D-02
     17 -0.803095D-01  0.149311D-02  0.179041D-02 -0.859392D-03 -0.106680D-02
     18 -0.717476D-01 -0.358293D-02  0.111283D-02 -0.183964D-02 -0.351099D-02
     19  0.432144D-02  0.210199D-02  0.759766D-03  0.209939D-02 -0.489715D-03
     20  0.130174D-01  0.362209D-04 -0.742254D-03  0.127003D-03  0.526266D-03
     21  0.558985D-02 -0.444313D-03  0.278875D-03 -0.459622D-03  0.197621D-02
     22 -0.129361D+00  0.257476D-04  0.132586D-02  0.863984D-03 -0.135540D-03
     23 -0.654743D-01  0.326089D-03  0.101516D-02 -0.203364D-03  0.327539D-03
     24 -0.167794D+00 -0.800240D-03  0.123186D-02 -0.435242D-03  0.110367D-02
     25 -0.231238D-02 -0.829362D-03 -0.398496D-03 -0.247940D-03  0.114842D-03
     26  0.808394D-02  0.163161D-03  0.780843D-04 -0.646604D-03 -0.709787D-03
     27 -0.970956D-02  0.372183D-03  0.226064D-03  0.232915D-03 -0.102525D-03
               11            12            13            14            15 
     11  0.636588D-01
     12 -0.842472D-01  0.237509D+00
     13 -0.132745D-02 -0.648841D-03  0.747217D-01
     14 -0.661133D-02 -0.480296D-02  0.356317D-01 -0.135992D+00
     15  0.772030D-02  0.391672D-02  0.326671D-01  0.830322D-01  0.520764D-01
     16  0.123706D-02 -0.336491D-02 -0.223290D-01 -0.651215D-01  0.181533D-01
     17  0.151582D-02  0.966920D-03 -0.180327D-02  0.472532D-01 -0.199606D-01
     18 -0.228283D-02 -0.382206D-02  0.216048D-02 -0.898643D-01  0.121272D-02
     19  0.214666D-04 -0.620940D-03  0.262808D-02  0.549163D-03  0.145617D-02
     20 -0.548669D-03  0.844329D-03 -0.178340D-02  0.348829D-02 -0.255093D-02
     21  0.933173D-03  0.193971D-02  0.204625D-02  0.215401D-04  0.343531D-02
     22  0.121890D-02 -0.103820D-02  0.415038D-02 -0.253620D-02 -0.314699D-02
     23  0.104736D-02  0.268234D-03 -0.534597D-03  0.216402D-02  0.779603D-03
     24  0.921796D-03 -0.308966D-03 -0.365271D-02 -0.142997D-02  0.391098D-02
     25  0.342532D-03  0.392810D-03  0.218067D-03  0.228585D-03 -0.663388D-03
     26  0.579159D-04 -0.200945D-03  0.113931D-03  0.265608D-03  0.249330D-03
     27 -0.530892D-03 -0.691783D-03 -0.632687D-03  0.380639D-03 -0.316068D-04
               16            17            18            19            20 
     16  0.150003D+00
     17  0.171745D+00  0.859948D+00
     18  0.514888D-01 -0.115662D-01  0.123872D+00
     19 -0.325147D-01  0.253039D-01 -0.200718D-01  0.221624D-01
     20  0.109198D-01 -0.327437D+00  0.897748D-01 -0.197941D-01  0.331664D+00
     21 -0.164304D-01  0.105684D+00 -0.649997D-01  0.151915D-01 -0.102465D+00
     22 -0.766799D-02 -0.116694D-01 -0.213700D-01 -0.211757D-02  0.887057D-03
     23 -0.280288D-01 -0.386642D-02 -0.263561D-01  0.112038D-02  0.276757D-03
     24 -0.172280D-01 -0.828486D-02 -0.258807D-02  0.214367D-02 -0.180840D-03
     25 -0.113474D-02  0.209222D-02 -0.173194D-02  0.456719D-03 -0.257660D-03
     26  0.914130D-03  0.535650D-02 -0.352586D-03 -0.101645D-04 -0.156859D-03
     27 -0.143461D-02  0.940591D-03 -0.186881D-02 -0.690908D-03  0.282638D-04
               21            22            23            24            25 
     21  0.556273D-01
     22  0.220896D-02  0.201029D+00
     23  0.768244D-04  0.137372D+00  0.541869D+00
     24 -0.189931D-02  0.166646D+00  0.190026D-01  0.197895D+00
     25 -0.628778D-03 -0.234829D-01 -0.384659D-01 -0.163398D-01  0.393774D-01
     26  0.304459D-03 -0.812409D-01 -0.420811D+00  0.170852D-01  0.762474D-01
     27  0.315613D-03 -0.548038D-02  0.643439D-01 -0.222335D-01  0.214474D-01
               26            27 
     26  0.430982D+00
     27 -0.245258D-01  0.323651D-01
 Leave Link  716 at Thu Jan  7 22:08:57 2021, MaxMem=    33554432 cpu:         0.0
 (Enter /apps/applications/gaussian/G09.D01/2/default/g09/l103.exe)

 GradGradGradGradGradGradGradGradGradGradGradGradGradGradGradGradGradGrad
 Berny optimization.
 Search for a saddle point.
 Step number   1 out of a maximum of  100
 All quantities printed in internal units (Hartrees-Bohrs-Radians)
 Swapping is turned off.
 Second derivative matrix not updated -- analytic derivatives used.
 ITU=  0
     Eigenvalues ---   -0.27615   0.00335   0.00987   0.01781   0.01807
     Eigenvalues ---    0.03182   0.04908   0.06355   0.07348   0.08190
     Eigenvalues ---    0.14364   0.17637   0.19895   0.22173   0.29178
     Eigenvalues ---    0.48192   0.67727   0.76624   0.78233   0.94061
     Eigenvalues ---    1.50591
 Eigenvectors required to have negative eigenvalues:
                          Y5        Z5        Y1        Z6        X1
   1                    0.84365  -0.30805  -0.24021   0.19553  -0.15918
                          X6        Z1        Y6        X5        Y7
   1                    0.15676  -0.11506  -0.08895  -0.08600  -0.07396
 RFO step:  Lambda0=3.244043922D-12 Lambda= 0.00000000D+00.
 Linear search not attempted -- option 19 set.
 TrRot= -0.000034  0.000007  0.000038 -0.000009  0.000043 -0.000009
 Variable       Old X    -DE/DX   Delta X   Delta X   Delta X     New X
                                 (Linear)    (Quad)   (Total)
    X1        0.85776   0.00000   0.00000  -0.00004  -0.00004   0.85771
    Y1       -1.28140   0.00000   0.00000   0.00000   0.00000  -1.28141
    Z1        1.27066   0.00000   0.00000   0.00004   0.00004   1.27070
    X2       -0.54967   0.00000   0.00000   0.00001  -0.00005  -0.54972
    Y2        0.28339   0.00000   0.00000   0.00000   0.00002   0.28340
    Z2       -0.67855   0.00000   0.00000   0.00001   0.00007  -0.67848
    X3        2.36236   0.00000   0.00000  -0.00004  -0.00010   2.36227
    Y3       -2.52324   0.00000   0.00000  -0.00004  -0.00007  -2.52331
    Z3        0.60895   0.00000   0.00000   0.00011   0.00005   0.60900
    X4       -0.18793   0.00000   0.00000  -0.00010  -0.00004  -0.18797
    Y4       -1.93954   0.00000   0.00000   0.00004   0.00005  -1.93949
    Z4        2.91907   0.00000   0.00000   0.00002   0.00006   2.91913
    X5        1.80376   0.00000   0.00000   0.00010   0.00017   1.80392
    Y5        1.19978   0.00000   0.00000  -0.00002  -0.00005   1.19974
    Z5        1.68834   0.00000   0.00000  -0.00008  -0.00013   1.68821
    X6        0.40551   0.00001   0.00000   0.00013   0.00013   0.40564
    Y6        2.56699   0.00000   0.00000  -0.00002  -0.00002   2.56697
    Z6       -0.20083   0.00000   0.00000  -0.00012  -0.00009  -0.20093
    X7        0.22904   0.00000   0.00000  -0.00013  -0.00012   0.22892
    Y7        4.48369   0.00000   0.00000   0.00000   0.00000   4.48369
    Z7       -0.88048   0.00000   0.00000   0.00003   0.00005  -0.88042
    X8       -2.31252  -0.00001   0.00000  -0.00024  -0.00039  -2.31291
    Y8       -0.47214  -0.00003   0.00000   0.00005   0.00010  -0.47204
    Z8       -2.43439   0.00000   0.00000   0.00024   0.00038  -2.43401
    X9       -2.60831   0.00001   0.00000   0.00062   0.00044  -2.60787
    Y9       -2.31754   0.00003   0.00000  -0.00007  -0.00002  -2.31756
    Z9       -2.29277  -0.00001   0.00000  -0.00058  -0.00043  -2.29320
         Item               Value     Threshold  Converged?
 Maximum Force            0.000035     0.000450     YES
 RMS     Force            0.000009     0.000300     YES
 Maximum Displacement     0.000442     0.001800     YES
 RMS     Displacement     0.000173     0.001200     YES
 Predicted change in Energy=-3.649527D-09
 Optimization completed.
    -- Stationary point found.
 Lowest energy point so far.  Saving SCF results.
 GradGradGradGradGradGradGradGradGradGradGradGradGradGradGradGradGradGrad

 Largest change from initial coordinates is atom    3       0.000 Angstoms.
 Leave Link  103 at Thu Jan  7 22:08:57 2021, MaxMem=    33554432 cpu:         0.0
 (Enter /apps/applications/gaussian/G09.D01/2/default/g09/l202.exe)
                          Input orientation:                          
 ---------------------------------------------------------------------
 Center     Atomic      Atomic             Coordinates (Angstroms)
 Number     Number       Type             X           Y           Z
 ---------------------------------------------------------------------
      1          6           0        0.453905   -0.678090    0.672403
      2          6           0       -0.290874    0.149963   -0.359072
      3          1           0        1.250108   -1.335239    0.322244
      4          1           0       -0.099446   -1.026359    1.544703
      5          1           0        0.954507    0.634898    0.893431
      6          6           0        0.214588    1.358395   -0.106275
      7          1           0        0.121202    2.372667   -0.465928
      8          8           0       -1.223731   -0.249847   -1.288224
      9          1           0       -1.380259   -1.226389   -1.213282
 ---------------------------------------------------------------------
                    Distance matrix (angstroms):
                    1          2          3          4          5
     1  C    0.000000
     2  C    1.517995   0.000000
     3  H    1.090135   2.246028   0.000000
     4  H    1.090136   2.246049   1.846919   0.000000
     5  H    1.422460   1.831638   2.072456   2.072377   0.000000
     6  C    2.193373   1.334056   2.917464   2.917430   1.438868
     7  H    3.273165   2.263104   3.955276   3.955338   2.358409
     8  O    2.615705   1.376006   3.145085   3.145229   3.207353
     9  H    2.687117   1.952122   3.047707   3.047454   3.654280
                    6          7          8          9
     6  C    0.000000
     7  H    1.080194   0.000000
     8  O    2.460123   3.059836   0.000000
     9  H    3.232663   3.970658   0.991843   0.000000
 Stoichiometry    C3H5O(2)
 Framework group  C1[X(C3H5O)]
 Deg. of freedom    21
 Full point group                 C1      NOp   1
 RotChk:  IX=0 Diff= 1.18D-15
 Largest Abelian subgroup         C1      NOp   1
 Largest concise Abelian subgroup C1      NOp   1
                         Standard orientation:                         
 ---------------------------------------------------------------------
 Center     Atomic      Atomic             Coordinates (Angstroms)
 Number     Number       Type             X           Y           Z
 ---------------------------------------------------------------------
      1          6           0       -1.037723   -0.898190    0.000035
      2          6           0        0.116150    0.088160   -0.000029
      3          1           0       -1.249117   -1.437541    0.923512
      4          1           0       -1.249256   -1.437546   -0.923407
      5          1           0       -1.694679    0.363476   -0.000007
      6          6           0       -0.554620    1.241318   -0.000060
      7          1           0       -0.351937    2.302326    0.000108
      8          8           0        1.470380   -0.155672    0.000087
      9          1           0        1.639110   -1.133057   -0.000585
 ---------------------------------------------------------------------
 Rotational constants (GHZ):     12.2462958      8.1763604      5.0720554
 Leave Link  202 at Thu Jan  7 22:08:57 2021, MaxMem=    33554432 cpu:         0.0
 (Enter /apps/applications/gaussian/G09.D01/2/default/g09/l716.exe)
 Rotating derivatives to standard orientation.
 Dipole        = 2.64633503D-02-8.46150343D-01-3.77273396D-04
 Polarizability= 3.38662677D+01-2.11778957D+00 4.79954932D+01
                 8.46589022D-05 1.22064220D-03 1.71851888D+01
 Full mass-weighted force constant matrix:
 Low frequencies ----2203.3184   -2.7238   -0.0015   -0.0010   -0.0008    4.4331
 Low frequencies ---   19.3259  213.5146  413.8952
 ******    1 imaginary frequencies (negative Signs) ****** 
 Diagonal vibrational polarizability:
        8.0240455       2.1222051      72.3323858
 Harmonic frequencies (cm**-1), IR intensities (KM/Mole), Raman scattering
 activities (A**4/AMU), depolarization ratios for plane and unpolarized
 incident light, reduced masses (AMU), force constants (mDyne/A),
 and normal coordinates:
                      1                      2                      3
                      A                      A                      A
 Frequencies --  -2203.3184               213.5105               413.8948
 Red. masses --      1.0811                 1.1983                 3.1155
 Frc consts  --      3.0923                 0.0322                 0.3145
 IR Inten    --      1.6522               104.9686                 3.5437
  Atom  AN      X      Y      Z        X      Y      Z        X      Y      Z
     1   6     0.04  -0.05   0.00     0.00   0.00   0.04     0.25   0.01   0.00
     2   6     0.00  -0.01   0.00     0.00   0.00  -0.04     0.00   0.17   0.00
     3   1    -0.04   0.02   0.01     0.13  -0.07   0.02     0.41  -0.05   0.00
     4   1    -0.04   0.02  -0.01    -0.13   0.07   0.02     0.41  -0.05   0.00
     5   1     0.20   0.97   0.00     0.00   0.00   0.05    -0.01  -0.08   0.00
     6   6    -0.05  -0.03   0.00     0.00   0.00  -0.05    -0.13   0.12   0.00
     7   1    -0.01  -0.03   0.00     0.00   0.00   0.09    -0.39   0.16   0.00
     8   8     0.00   0.00   0.00     0.00   0.00   0.09    -0.08  -0.21   0.00
     9   1     0.00   0.00   0.00     0.00   0.00  -0.96    -0.48  -0.28   0.00
                      4                      5                      6
                      A                      A                      A
 Frequencies --    469.5575               484.3449               605.8337
 Red. masses --      1.0792                 1.8274                 3.3055
 Frc consts  --      0.1402                 0.2526                 0.7148
 IR Inten    --      9.6713                35.5488                10.3979
  Atom  AN      X      Y      Z        X      Y      Z        X      Y      Z
     1   6     0.00   0.00  -0.04     0.00   0.00  -0.01    -0.12   0.17   0.00
     2   6     0.00   0.00   0.03     0.00   0.00   0.26     0.15   0.04   0.00
     3   1    -0.36   0.51   0.17    -0.21  -0.30  -0.24    -0.22   0.23   0.01
     4   1     0.36  -0.51   0.17     0.21   0.30  -0.24    -0.22   0.23  -0.01
     5   1     0.00   0.00  -0.26     0.00   0.00  -0.02    -0.02  -0.06   0.00
     6   6     0.00   0.00   0.06     0.00   0.00  -0.04    -0.22  -0.13   0.00
     7   1     0.00   0.00  -0.07     0.00   0.00  -0.67    -0.77  -0.03   0.00
     8   8     0.00   0.00  -0.02     0.00   0.00  -0.06     0.22  -0.08   0.00
     9   1     0.00   0.00  -0.28     0.00   0.00  -0.30     0.05  -0.11   0.00
                      7                      8                      9
                      A                      A                      A
 Frequencies --    675.1132               879.8669               970.7820
 Red. masses --      1.5070                 4.8269                 1.3845
 Frc consts  --      0.4047                 2.2017                 0.7688
 IR Inten    --     76.2871                37.5491                47.5562
  Atom  AN      X      Y      Z        X      Y      Z        X      Y      Z
     1   6     0.00   0.00   0.02     0.21   0.36   0.00    -0.07   0.04   0.00
     2   6     0.00   0.00   0.14     0.03  -0.15   0.00     0.02  -0.05   0.00
     3   1    -0.11  -0.03  -0.02     0.20   0.37   0.00     0.28  -0.16  -0.03
     4   1     0.11   0.03  -0.02     0.20   0.37   0.00     0.28  -0.16   0.03
     5   1     0.00   0.00  -0.26     0.01  -0.05   0.00     0.09   0.13   0.00
     6   6     0.00   0.00  -0.15    -0.05  -0.29   0.00     0.13  -0.01   0.00
     7   1     0.00   0.00   0.93     0.35  -0.36   0.00    -0.82   0.14   0.00
     8   8     0.00   0.00  -0.05    -0.21   0.03   0.00    -0.07   0.01   0.00
     9   1     0.00   0.00   0.00     0.21   0.12   0.00     0.18   0.06   0.00
                     10                     11                     12
                      A                      A                      A
 Frequencies --   1003.7488              1056.2507              1091.0681
 Red. masses --      1.3332                 1.3227                 1.1268
 Frc consts  --      0.7914                 0.8694                 0.7903
 IR Inten    --     21.1273                14.8131                 8.9503
  Atom  AN      X      Y      Z        X      Y      Z        X      Y      Z
     1   6    -0.11   0.07   0.00     0.00   0.00   0.12     0.00   0.00  -0.06
     2   6    -0.03   0.00   0.00     0.00   0.00  -0.10     0.00   0.00   0.08
     3   1     0.53  -0.31  -0.06    -0.21  -0.28  -0.10     0.55   0.11   0.14
     4   1     0.53  -0.31   0.06     0.21   0.28  -0.10    -0.55  -0.11   0.14
     5   1    -0.13   0.14   0.00     0.00   0.00  -0.84     0.00   0.00  -0.56
     6   6    -0.06  -0.01   0.00     0.00   0.00   0.07     0.00   0.00   0.02
     7   1     0.41  -0.09   0.00     0.00   0.00  -0.04     0.00   0.00  -0.12
     8   8     0.07  -0.01   0.00     0.00   0.00   0.00     0.00   0.00  -0.01
     9   1     0.02  -0.03   0.00     0.00   0.00   0.00     0.00   0.00  -0.01
                     13                     14                     15
                      A                      A                      A
 Frequencies --   1200.0881              1270.6881              1474.5052
 Red. masses --      2.1151                 2.1450                 1.1386
 Frc consts  --      1.7947                 2.0406                 1.4586
 IR Inten    --      0.7837               289.5580                 0.2258
  Atom  AN      X      Y      Z        X      Y      Z        X      Y      Z
     1   6     0.09   0.04   0.00    -0.07  -0.05   0.00    -0.06  -0.08   0.00
     2   6    -0.19  -0.13   0.00     0.22   0.12   0.00    -0.01   0.03   0.00
     3   1    -0.03   0.10   0.00    -0.04  -0.13  -0.03     0.31   0.49   0.39
     4   1    -0.03   0.10   0.00    -0.04  -0.13   0.03     0.31   0.49  -0.39
     5   1    -0.12   0.02   0.00     0.12  -0.05   0.00    -0.01  -0.02   0.00
     6   6    -0.06   0.14   0.00    -0.07   0.03   0.00     0.01  -0.02   0.00
     7   1    -0.09   0.17   0.00     0.24  -0.01   0.00     0.01  -0.02   0.00
     8   8     0.07  -0.07   0.00    -0.13  -0.06   0.00     0.00  -0.01   0.00
     9   1     0.91   0.08   0.00     0.88   0.16   0.00     0.09   0.01   0.00
                     16                     17                     18
                      A                      A                      A
 Frequencies --   1700.2131              1859.2764              3094.8229
 Red. masses --      3.2028                 1.2134                 1.0483
 Frc consts  --      5.4548                 2.4714                 5.9158
 IR Inten    --     55.3954                16.9201                12.2428
  Atom  AN      X      Y      Z        X      Y      Z        X      Y      Z
     1   6     0.04  -0.01   0.00    -0.02   0.02   0.00     0.02   0.06   0.00
     2   6    -0.18   0.30   0.00    -0.10   0.07   0.00     0.00   0.00   0.00
     3   1    -0.13  -0.09  -0.09     0.01  -0.03  -0.03    -0.14  -0.33   0.61
     4   1    -0.13  -0.09   0.09     0.01  -0.03   0.03    -0.14  -0.33  -0.61
     5   1    -0.67   0.13   0.00     0.96  -0.18   0.00     0.01   0.01   0.00
     6   6     0.15  -0.21   0.00     0.00  -0.04   0.00     0.00   0.00   0.00
     7   1    -0.12  -0.26   0.00     0.03  -0.09   0.00     0.00  -0.02   0.00
     8   8     0.03  -0.05   0.00     0.02  -0.01   0.00     0.00   0.00   0.00
     9   1     0.43   0.05   0.00     0.09   0.00   0.00     0.00   0.00   0.00
                     19                     20                     21
                      A                      A                      A
 Frequencies --   3188.9884              3242.1914              3522.8950
 Red. masses --      1.1152                 1.1043                 1.0662
 Frc consts  --      6.6821                 6.8396                 7.7959
 IR Inten    --     16.6032                 0.3417                29.6032
  Atom  AN      X      Y      Z        X      Y      Z        X      Y      Z
     1   6     0.00   0.00   0.10     0.00   0.00   0.00     0.00   0.00   0.00
     2   6     0.00   0.00   0.00     0.01  -0.01   0.00     0.00   0.00   0.00
     3   1     0.14   0.35  -0.59     0.00   0.01  -0.01     0.00   0.00   0.00
     4   1    -0.14  -0.35  -0.59     0.00   0.01   0.01     0.00   0.00   0.00
     5   1     0.00   0.00   0.00    -0.02   0.01   0.00     0.00   0.00   0.00
     6   6     0.00   0.00   0.00     0.01   0.09   0.00     0.00   0.00   0.00
     7   1     0.00   0.00   0.00    -0.16  -0.98   0.00     0.00   0.01   0.00
     8   8     0.00   0.00   0.00     0.00   0.00   0.00    -0.01   0.06   0.00
     9   1     0.00   0.00   0.00     0.00  -0.01   0.00     0.20  -0.98   0.00

 -------------------
 - Thermochemistry -
 -------------------
 Temperature   298.150 Kelvin.  Pressure   1.00000 Atm.
 Atom     1 has atomic number  6 and mass  12.00000
 Atom     2 has atomic number  6 and mass  12.00000
 Atom     3 has atomic number  1 and mass   1.00783
 Atom     4 has atomic number  1 and mass   1.00783
 Atom     5 has atomic number  1 and mass   1.00783
 Atom     6 has atomic number  6 and mass  12.00000
 Atom     7 has atomic number  1 and mass   1.00783
 Atom     8 has atomic number  8 and mass  15.99491
 Atom     9 has atomic number  1 and mass   1.00783
 Molecular mass:    57.03404 amu.
 Principal axes and moments of inertia in atomic units:
                           1         2         3
     Eigenvalues --   147.37038 220.72672 355.82048
           X            0.99984   0.01810  -0.00002
           Y           -0.01810   0.99984   0.00002
           Z            0.00002  -0.00002   1.00000
 This molecule is an asymmetric top.
 Rotational symmetry number  1.
 Rotational temperatures (Kelvin)      0.58773     0.39240     0.24342
 Rotational constants (GHZ):          12.24630     8.17636     5.07206
    1 imaginary frequencies ignored.
 Zero-point vibrational energy     169975.2 (Joules/Mol)
                                   40.62505 (Kcal/Mol)
 Warning -- explicit consideration of   5 degrees of freedom as
           vibrations may cause significant error
 Vibrational temperatures:    307.19   595.50   675.59   696.86   871.66
          (Kelvin)            971.34  1265.93  1396.74  1444.17  1519.71
                             1569.80  1726.66  1828.23  2121.48  2446.22
                             2675.08  4452.75  4588.24  4664.78  5068.65
 
 Zero-point correction=                           0.064740 (Hartree/Particle)
 Thermal correction to Energy=                    0.069401
 Thermal correction to Enthalpy=                  0.070345
 Thermal correction to Gibbs Free Energy=         0.037511
 Sum of electronic and zero-point Energies=           -191.241583
 Sum of electronic and thermal Energies=              -191.236922
 Sum of electronic and thermal Enthalpies=            -191.235978
 Sum of electronic and thermal Free Energies=         -191.268813
 
                     E (Thermal)             CV                S
                      KCal/Mol        Cal/Mol-Kelvin    Cal/Mol-Kelvin
 Total                   43.550             16.147             69.106
 Electronic               0.000              0.000              1.377
 Translational            0.889              2.981             38.044
 Rotational               0.889              2.981             23.963
 Vibrational             41.773             10.186              5.721
 Vibration     1          0.644              1.820              2.013
 Vibration     2          0.777              1.440              0.913
 Vibration     3          0.827              1.318              0.739
 Vibration     4          0.840              1.285              0.698
 Vibration     5          0.964              1.019              0.440
                       Q            Log10(Q)             Ln(Q)
 Total Bot       0.557366D-17        -17.253859        -39.728479
 Total V=0       0.334563D+13         12.524477         28.838675
 Vib (Bot)       0.427425D-29        -29.369140        -67.624944
 Vib (Bot)    1  0.928923D+00         -0.032020         -0.073729
 Vib (Bot)    2  0.426208D+00         -0.370378         -0.852828
 Vib (Bot)    3  0.359354D+00         -0.444478         -1.023449
 Vib (Bot)    4  0.344016D+00         -0.463422         -1.067068
 Vib (Bot)    5  0.244990D+00         -0.610852         -1.406538
 Vib (V=0)       0.256565D+01          0.409197          0.942210
 Vib (V=0)    1  0.155494D+01          0.191714          0.441437
 Vib (V=0)    2  0.115700D+01          0.063335          0.145833
 Vib (V=0)    3  0.111574D+01          0.047563          0.109517
 Vib (V=0)    4  0.110692D+01          0.044115          0.101578
 Vib (V=0)    5  0.105679D+01          0.023991          0.055240
 Electronic      0.200000D+01          0.301030          0.693147
 Translational   0.169300D+08          7.228656         16.644596
 Rotational      0.385119D+05          4.585594         10.558721
 
                                                    Gaussian input prepared by AS
 E
                                                             IR Spectrum
 
     3          3 3  3                                           1     1       1       1 1   11 1                                    
     5          2 1  0                                           8     7       4       2 2   00 0 9  8      6  6   44 4      2       
     2          4 8  9                                           5     0       7       7 0   95 0 7  8      7  0   87 1      1       
     3          2 9  5                                           9     0       5       1 0   16 4 1  0      5  6   40 4      4       
 
     X          X X  X                                           X     X       X       X X   XX X X  X      X  X   XX X      X       
     X                                                                 X               X          X  X      X      X         X       
                                                                       X               X          X  X      X                X       
                                                                       X               X                    X                X       
                                                                                       X                    X                X       
                                                                                       X                                     X       
                                                                                       X                                     X       
                                                                                       X                                             
                                                                                       X                                             
                                                                                       X                                             
                                                                                       X                                             
                                                                                       X                                             
                                                                                       X                                             
                                                                                       X                                             
                                                                                       X                                             
                                                                                       X                                             
                                                                                       X                                             
                                                                                       X                                             
                                                                                       X                                             
                                                                                       X                                             
 
 ***** Axes restored to original set *****
 -------------------------------------------------------------------
 Center     Atomic                   Forces (Hartrees/Bohr)
 Number     Number              X              Y              Z
 -------------------------------------------------------------------
      1        6          -0.000003272   -0.000003465   -0.000001567
      2        6           0.000001555    0.000001450    0.000000258
      3        1          -0.000001934   -0.000002643   -0.000000310
      4        1          -0.000001756   -0.000002057   -0.000001131
      5        1           0.000000448   -0.000001700    0.000000220
      6        6           0.000007571    0.000002035    0.000002366
      7        1          -0.000000788   -0.000001352    0.000003136
      8        8          -0.000006942   -0.000027205    0.000003160
      9        1           0.000005118    0.000034937   -0.000006132
 -------------------------------------------------------------------
 Cartesian Forces:  Max     0.000034937 RMS     0.000009056
 Force constants in Cartesian coordinates: 
                1             2             3             4             5 
      1  0.401728D+00
      2 -0.170586D+00  0.308581D+00
      3 -0.147357D+00 -0.121198D+00  0.442199D+00
      4 -0.938495D-01  0.451160D-01 -0.299898D-01  0.414747D+00
      5  0.344644D-01 -0.101369D+00  0.441911D-01  0.198618D+00  0.741996D+00
      6 -0.273005D-01  0.559684D-01 -0.121293D+00  0.225877D+00  0.734037D-01
      7 -0.188584D+00  0.127204D+00  0.681017D-01 -0.763952D-02  0.848338D-02
      8  0.139428D+00 -0.135780D+00 -0.565708D-01  0.594468D-02 -0.109704D-01
      9  0.753389D-01 -0.477511D-01 -0.816290D-01 -0.177574D-01  0.184842D-01
     10 -0.123855D+00 -0.322480D-01  0.123260D+00  0.127040D-01  0.823885D-02
     11 -0.438942D-01 -0.607112D-01  0.834485D-01 -0.670128D-02 -0.907624D-02
     12  0.115879D+00  0.739928D-01 -0.221416D+00  0.133799D-01  0.736738D-02
     13 -0.319859D-01 -0.209891D-01 -0.489522D-02 -0.287650D-01 -0.155092D-01
     14  0.523204D-01  0.960010D-01  0.277691D-01 -0.104862D-01  0.127156D-02
     15 -0.234131D-01 -0.531756D-01 -0.351680D-01 -0.320048D-01 -0.167752D-01
     16  0.381566D-01  0.602392D-01  0.394740D-02 -0.120059D+00 -0.149935D+00
     17 -0.175726D-01 -0.108974D+00  0.133889D-01 -0.168522D+00 -0.475587D+00
     18  0.236008D-01  0.992971D-01  0.217811D-01 -0.269825D-01 -0.597627D-01
     19  0.208933D-02  0.227872D-02 -0.382847D-02  0.568343D-02 -0.102291D-01
     20 -0.150443D-02 -0.710482D-02  0.140550D-02  0.109702D-01  0.560069D-03
     21 -0.286956D-02  0.558449D-02  0.450843D-03 -0.104982D-02 -0.104180D-01
     22 -0.555248D-02 -0.120840D-01 -0.932242D-02 -0.166248D+00 -0.332734D-01
     23  0.687655D-02  0.580530D-02  0.756253D-02 -0.789935D-01 -0.127500D+00
     24 -0.141122D-01 -0.133878D-01 -0.654656D-02 -0.117760D+00 -0.149579D-01
     25  0.185239D-02  0.106940D-02  0.839455D-04 -0.165724D-01 -0.408581D-01
     26  0.468112D-03  0.355253D-02  0.299956D-05  0.405411D-02 -0.193248D-01
     27  0.234052D-03  0.669637D-03  0.162160D-02 -0.137126D-01 -0.415325D-01
                6             7             8             9            10 
      6  0.395591D+00
      7  0.811694D-02  0.202326D+00
      8 -0.320645D-02 -0.142900D+00  0.141782D+00
      9  0.100353D-01 -0.768792D-01  0.504351D-01  0.799016D-01
     10 -0.169106D-01 -0.774554D-02 -0.839070D-02  0.163270D-01  0.122843D+00
     11  0.975684D-02  0.122385D-01  0.106675D-01 -0.157197D-01  0.368645D-01
     12 -0.121958D-01  0.389754D-02  0.581152D-02 -0.493048D-02 -0.127876D+00
     13 -0.307377D-01  0.369438D-02  0.620135D-02  0.369333D-02 -0.233257D-02
     14 -0.112400D-01 -0.704413D-02 -0.784071D-02 -0.386620D-02 -0.354188D-02
     15 -0.284767D-01  0.121831D-02  0.680970D-03 -0.875869D-03  0.573341D-02
     16 -0.316935D-01 -0.334996D-02 -0.197001D-02 -0.343806D-02 -0.110410D-02
     17 -0.803095D-01  0.149311D-02  0.179041D-02 -0.859392D-03 -0.106680D-02
     18 -0.717476D-01 -0.358293D-02  0.111283D-02 -0.183964D-02 -0.351099D-02
     19  0.432144D-02  0.210199D-02  0.759766D-03  0.209939D-02 -0.489715D-03
     20  0.130174D-01  0.362209D-04 -0.742254D-03  0.127003D-03  0.526266D-03
     21  0.558985D-02 -0.444313D-03  0.278875D-03 -0.459622D-03  0.197621D-02
     22 -0.129361D+00  0.257476D-04  0.132586D-02  0.863984D-03 -0.135540D-03
     23 -0.654743D-01  0.326089D-03  0.101516D-02 -0.203364D-03  0.327539D-03
     24 -0.167794D+00 -0.800240D-03  0.123186D-02 -0.435242D-03  0.110367D-02
     25 -0.231238D-02 -0.829362D-03 -0.398496D-03 -0.247940D-03  0.114842D-03
     26  0.808394D-02  0.163161D-03  0.780843D-04 -0.646604D-03 -0.709787D-03
     27 -0.970956D-02  0.372183D-03  0.226064D-03  0.232915D-03 -0.102525D-03
               11            12            13            14            15 
     11  0.636588D-01
     12 -0.842472D-01  0.237509D+00
     13 -0.132745D-02 -0.648841D-03  0.747217D-01
     14 -0.661133D-02 -0.480296D-02  0.356317D-01 -0.135992D+00
     15  0.772030D-02  0.391672D-02  0.326671D-01  0.830322D-01  0.520764D-01
     16  0.123706D-02 -0.336491D-02 -0.223290D-01 -0.651215D-01  0.181533D-01
     17  0.151582D-02  0.966920D-03 -0.180327D-02  0.472532D-01 -0.199606D-01
     18 -0.228283D-02 -0.382206D-02  0.216048D-02 -0.898643D-01  0.121272D-02
     19  0.214666D-04 -0.620940D-03  0.262808D-02  0.549163D-03  0.145617D-02
     20 -0.548669D-03  0.844329D-03 -0.178340D-02  0.348829D-02 -0.255093D-02
     21  0.933173D-03  0.193971D-02  0.204625D-02  0.215401D-04  0.343531D-02
     22  0.121890D-02 -0.103820D-02  0.415038D-02 -0.253620D-02 -0.314699D-02
     23  0.104736D-02  0.268234D-03 -0.534597D-03  0.216402D-02  0.779603D-03
     24  0.921796D-03 -0.308966D-03 -0.365271D-02 -0.142997D-02  0.391098D-02
     25  0.342532D-03  0.392810D-03  0.218067D-03  0.228585D-03 -0.663388D-03
     26  0.579159D-04 -0.200945D-03  0.113931D-03  0.265608D-03  0.249330D-03
     27 -0.530892D-03 -0.691783D-03 -0.632687D-03  0.380639D-03 -0.316068D-04
               16            17            18            19            20 
     16  0.150003D+00
     17  0.171745D+00  0.859948D+00
     18  0.514888D-01 -0.115662D-01  0.123872D+00
     19 -0.325147D-01  0.253039D-01 -0.200718D-01  0.221624D-01
     20  0.109198D-01 -0.327437D+00  0.897748D-01 -0.197941D-01  0.331664D+00
     21 -0.164304D-01  0.105684D+00 -0.649997D-01  0.151915D-01 -0.102465D+00
     22 -0.766799D-02 -0.116694D-01 -0.213700D-01 -0.211757D-02  0.887057D-03
     23 -0.280288D-01 -0.386642D-02 -0.263561D-01  0.112038D-02  0.276757D-03
     24 -0.172280D-01 -0.828486D-02 -0.258807D-02  0.214367D-02 -0.180840D-03
     25 -0.113474D-02  0.209222D-02 -0.173194D-02  0.456719D-03 -0.257660D-03
     26  0.914130D-03  0.535650D-02 -0.352586D-03 -0.101645D-04 -0.156859D-03
     27 -0.143461D-02  0.940591D-03 -0.186881D-02 -0.690908D-03  0.282638D-04
               21            22            23            24            25 
     21  0.556273D-01
     22  0.220896D-02  0.201029D+00
     23  0.768244D-04  0.137372D+00  0.541869D+00
     24 -0.189931D-02  0.166646D+00  0.190026D-01  0.197895D+00
     25 -0.628778D-03 -0.234829D-01 -0.384659D-01 -0.163398D-01  0.393774D-01
     26  0.304459D-03 -0.812409D-01 -0.420811D+00  0.170852D-01  0.762474D-01
     27  0.315613D-03 -0.548038D-02  0.643439D-01 -0.222335D-01  0.214474D-01
               26            27 
     26  0.430982D+00
     27 -0.245258D-01  0.323651D-01
 Leave Link  716 at Thu Jan  7 22:08:57 2021, MaxMem=    33554432 cpu:         0.0
 (Enter /apps/applications/gaussian/G09.D01/2/default/g09/l9999.exe)
 1\1\GINC-DC1S1B1B\Freq\UB3LYP\3-21G\C3H5O1(2)\CHMRSH\07-Jan-2021\0\\#P
  b3lyp/3-21G scf=qc opt(calcall, ts, noeigentest, cartesian,maxcycle=1
 00)\\Gaussian input prepared by ASE\\0,2\C,0.453905,-0.67809,0.672403\
 C,-0.290874,0.149963,-0.359072\H,1.250108,-1.335239,0.322244\H,-0.0994
 46,-1.026359,1.544703\H,0.954507,0.634898,0.893431\C,0.214588,1.358395
 ,-0.106275\H,0.121202,2.372667,-0.465928\O,-1.223731,-0.249847,-1.2882
 24\H,-1.380259,-1.226389,-1.213282\\Version=ES64L-G09RevD.01\State=2-A
 \HF=-191.3063236\S2=0.765975\S2-1=0.\S2A=0.750156\RMSD=0.000e+00\RMSF=
 9.056e-06\ZeroPoint=0.0647401\Thermal=0.0694013\Dipole=-0.0538651,-0.8
 312214,0.1511305\DipoleDeriv=-0.0684929,-0.0528863,-0.251808,-0.128933
 6,0.0401026,-0.1090876,-0.232553,-0.0252756,-0.0786774,0.5870897,0.492
 109,0.4254262,0.2901523,0.3759708,0.2481198,0.4765556,0.4711202,0.4962
 006,0.0319515,0.0689206,0.0633163,0.1348694,-0.0496351,0.0218818,0.075
 6316,-0.0042945,0.048357,0.0340409,-0.0049961,0.1111055,0.0094241,-0.0
 041096,0.1240581,0.078459,0.0615275,0.0007145,0.0598027,-0.0187682,-0.
 0303719,-0.0324438,-0.0283799,-0.0054876,-0.0269303,0.0096164,0.059462
 5,-0.4030361,-0.2582988,0.1618407,-0.0832847,-0.2487755,-0.1532175,0.1
 175288,-0.3463218,-0.2732444,0.1872706,0.0964823,-0.1240844,-0.0244691
 ,0.0288571,0.0358864,-0.093449,0.1694657,0.1315807,-0.7990514,-0.37658
 91,-0.3355189,-0.1546796,-0.2520822,-0.210816,-0.391817,-0.45609,-0.72
 61143,0.370425,0.0540266,-0.0199055,-0.010635,0.1380518,0.0486626,-0.0
 034257,0.1202521,0.3417209\Polar=25.1046918,4.0433583,47.4266341,7.722
 537,-3.178845,26.5156238\PG=C01 [X(C3H5O1)]\NImag=1\\0.40172837,-0.170
 58629,0.30858102,-0.14735716,-0.12119779,0.44219893,-0.09384947,0.0451
 1598,-0.02998976,0.41474662,0.03446441,-0.10136939,0.04419105,0.198618
 20,0.74199610,-0.02730048,0.05596840,-0.12129271,0.22587713,0.07340366
 ,0.39559148,-0.18858416,0.12720413,0.06810171,-0.00763952,0.00848338,0
 .00811694,0.20232642,0.13942800,-0.13578005,-0.05657080,0.00594468,-0.
 01097043,-0.00320645,-0.14290045,0.14178228,0.07533892,-0.04775112,-0.
 08162896,-0.01775738,0.01848420,0.01003528,-0.07687920,0.05043514,0.07
 990161,-0.12385468,-0.03224799,0.12325997,0.01270402,0.00823885,-0.016
 91062,-0.00774554,-0.00839070,0.01632697,0.12284328,-0.04389420,-0.060
 71117,0.08344852,-0.00670128,-0.00907624,0.00975684,0.01223848,0.01066
 751,-0.01571966,0.03686450,0.06365881,0.11587870,0.07399276,-0.2214162
 4,0.01337995,0.00736738,-0.01219585,0.00389754,0.00581152,-0.00493048,
 -0.12787611,-0.08424724,0.23750895,-0.03198594,-0.02098912,-0.00489522
 ,-0.02876503,-0.01550918,-0.03073774,0.00369438,0.00620135,0.00369333,
 -0.00233257,-0.00132745,-0.00064884,0.07472167,0.05232041,0.09600099,0
 .02776905,-0.01048617,0.00127156,-0.01124002,-0.00704413,-0.00784071,-
 0.00386620,-0.00354188,-0.00661133,-0.00480296,0.03563174,-0.13599166,
 -0.02341314,-0.05317564,-0.03516796,-0.03200480,-0.01677524,-0.0284766
 5,0.00121831,0.00068097,-0.00087587,0.00573341,0.00772030,0.00391672,0
 .03266714,0.08303218,0.05207637,0.03815665,0.06023922,0.00394740,-0.12
 005943,-0.14993500,-0.03169350,-0.00334996,-0.00197001,-0.00343806,-0.
 00110410,0.00123706,-0.00336491,-0.02232904,-0.06512153,0.01815329,0.1
 5000328,-0.01757256,-0.10897442,0.01338894,-0.16852232,-0.47558668,-0.
 08030950,0.00149311,0.00179041,-0.00085939,-0.00106680,0.00151582,0.00
 096692,-0.00180327,0.04725323,-0.01996057,0.17174514,0.85994840,0.0236
 0085,0.09929707,0.02178106,-0.02698251,-0.05976265,-0.07174759,-0.0035
 8293,0.00111283,-0.00183964,-0.00351099,-0.00228283,-0.00382206,0.0021
 6048,-0.08986426,0.00121272,0.05148885,-0.01156624,0.12387208,0.002089
 33,0.00227872,-0.00382847,0.00568343,-0.01022914,0.00432144,0.00210199
 ,0.00075977,0.00209939,-0.00048971,0.00002147,-0.00062094,0.00262808,0
 .00054916,0.00145617,-0.03251466,0.02530393,-0.02007183,0.02216240,-0.
 00150443,-0.00710482,0.00140550,0.01097025,0.00056007,0.01301738,0.000
 03622,-0.00074225,0.00012700,0.00052627,-0.00054867,0.00084433,-0.0017
 8340,0.00348829,-0.00255093,0.01091983,-0.32743684,0.08977477,-0.01979
 413,0.33166434,-0.00286956,0.00558449,0.00045084,-0.00104982,-0.010417
 99,0.00558985,-0.00044431,0.00027887,-0.00045962,0.00197621,0.00093317
 ,0.00193971,0.00204625,0.00002154,0.00343531,-0.01643043,0.10568410,-0
 .06499969,0.01519148,-0.10246547,0.05562731,-0.00555248,-0.01208404,-0
 .00932242,-0.16624820,-0.03327341,-0.12936080,0.00002575,0.00132586,0.
 00086398,-0.00013554,0.00121890,-0.00103820,0.00415038,-0.00253620,-0.
 00314699,-0.00766799,-0.01166945,-0.02136998,-0.00211757,0.00088706,0.
 00220896,0.20102850,0.00687655,0.00580530,0.00756253,-0.07899345,-0.12
 750020,-0.06547427,0.00032609,0.00101516,-0.00020336,0.00032754,0.0010
 4736,0.00026823,-0.00053460,0.00216402,0.00077960,-0.02802883,-0.00386
 642,-0.02635610,0.00112038,0.00027676,0.00007682,0.13737218,0.54186890
 ,-0.01411217,-0.01338781,-0.00654656,-0.11776025,-0.01495793,-0.167794
 25,-0.00080024,0.00123186,-0.00043524,0.00110367,0.00092180,-0.0003089
 7,-0.00365271,-0.00142997,0.00391098,-0.01722802,-0.00828486,-0.002588
 07,0.00214367,-0.00018084,-0.00189931,0.16664582,0.01900261,0.19789491
 ,0.00185239,0.00106940,0.00008395,-0.01657242,-0.04085813,-0.00231238,
 -0.00082936,-0.00039850,-0.00024794,0.00011484,0.00034253,0.00039281,0
 .00021807,0.00022858,-0.00066339,-0.00113474,0.00209222,-0.00173194,0.
 00045672,-0.00025766,-0.00062878,-0.02348286,-0.03846586,-0.01633976,0
 .03937737,0.00046811,0.00355253,0.00000300,0.00405411,-0.01932479,0.00
 808394,0.00016316,0.00007808,-0.00064660,-0.00070979,0.00005792,-0.000
 20094,0.00011393,0.00026561,0.00024933,0.00091413,0.00535650,-0.000352
 59,-0.00001016,-0.00015686,0.00030446,-0.08124090,-0.42081088,0.017085
 16,0.07624741,0.43098189,0.00023405,0.00066964,0.00162160,-0.01371255,
 -0.04153248,-0.00970956,0.00037218,0.00022606,0.00023292,-0.00010252,-
 0.00053089,-0.00069178,-0.00063269,0.00038064,-0.00003161,-0.00143461,
 0.00094059,-0.00186881,-0.00069091,0.00002826,0.00031561,-0.00548038,0
 .06434393,-0.02223350,0.02144743,-0.02452575,0.03236514\\0.00000327,0.
 00000347,0.00000157,-0.00000156,-0.00000145,-0.00000026,0.00000193,0.0
 0000264,0.00000031,0.00000176,0.00000206,0.00000113,-0.00000045,0.0000
 0170,-0.00000022,-0.00000757,-0.00000203,-0.00000237,0.00000079,0.0000
 0135,-0.00000314,0.00000694,0.00002720,-0.00000316,-0.00000512,-0.0000
 3494,0.00000613\\\@


 ALL MEN WHO EXPLORE
 DEPLORE
 THAT FRUSTRATING HURDLE
 THE GIRDLE.

         -- COLIN FLETCHER
 Job cpu time:       0 days  0 hours  0 minutes 58.5 seconds.
 File lengths (MBytes):  RWF=      9 Int=      0 D2E=      0 Chk=      1 Scr=      1
 Normal termination of Gaussian 09 at Thu Jan  7 22:08:57 2021.
