9
Properties=species:S:1:pos:R:3:momenta:R:3:forces:R:3 pbc="F F F"
C        0.42382919      -0.63761442       0.62744631      -0.73365092       0.41611291      -0.48827602      -1.54085517      -0.38125867      -1.55019606
C       -0.33518130       0.11688815      -0.39845144       1.44023988      -2.26190372      -1.25775358      -0.00385954       0.02987005       0.02709875
H        1.24902383      -1.25526640       0.32027275      -0.20297934       0.19394707      -0.10718710       0.00898207      -0.02420540      -0.01707958
H       -0.07785680      -0.95104593       1.52570459       0.18474633      -0.01881779       0.33559896      -0.00437892       0.00514194      -0.02062654
H        0.97418086       0.67284892       0.90252697       0.33545959       0.33163424      -0.29632868       2.97815285       1.59356436       2.77179156
C        0.17412032       1.30984209      -0.13889838      -0.75965939      -0.35456882       0.21086041      -1.39396239      -1.21231481      -1.23337550
H        0.24647691       2.32843122      -0.31631279       0.12389858       0.02205941      -0.21312135      -0.01318232      -0.00157547       0.00151677
O       -1.25122485      -0.30387250      -1.30060392       0.76545562       0.55863962      -1.08017767      -0.00944159      -0.00834476       0.01160954
H       -1.40336817      -1.28021114      -1.22168410      -0.14743624      -0.21153757       0.33608833      -0.02145499      -0.00087724       0.00926107
