22
Properties=species:S:1:pos:R:3 energy=-2169.1849259216374 pbc="F F F"
O        0.75324700       1.95506800       2.53504000
C        0.12499500       2.29091000       1.55596600
C        0.59341800       2.05162800       0.13972700
C        1.75302000       1.05636400       0.05192400
C        1.32197100      -0.39054800       0.32580100
C        0.33988800      -0.97983000      -0.66920900
H        0.30454300      -2.08252200      -0.61315400
C        0.48359000      -0.47135900      -2.09176100
O       -0.23214000       0.39878900      -2.53053600
C        1.55670800      -1.13475400      -2.90093600
H       -0.84293200       2.81165300       1.64455400
H       -0.25817500       1.70326300      -0.49131900
H        0.89258600       3.02322500      -0.30698700
H        2.23964100       1.13855200      -0.93823000
H        2.52639900       1.33869800       0.80126700
H        2.22121600      -1.03509300       0.39181800
H        0.84927200      -0.43946900       1.34020000
H        1.26157000      -2.14990200      -3.20277700
H        1.75718000      -0.57584400      -3.82884300
H        2.50445300      -1.22055300      -2.35365600
O       -1.42178600      -0.71953900       0.81850300
O       -1.10604200      -0.53248100      -0.30026400
22
Properties=species:S:1:pos:R:3 energy=-2169.170646028014 pbc="F F F"
O        0.76304172       2.00914652       2.52802377
C        0.13270881       2.33955311       1.54875874
C        0.58466498       2.05852341       0.13547605
C        1.73775691       1.05286866       0.08026966
C        1.31860363      -0.39972158       0.32274996
C        0.35025415      -0.98617732      -0.68550995
H        0.34068214      -2.09566610      -0.63313378
C        0.48973999      -0.46483506      -2.08793502
O       -0.21870321       0.41288409      -2.52540670
C        1.55249986      -1.13902004      -2.90729552
H       -0.82437399       2.88038693       1.63194813
H       -0.27603108       1.71188631      -0.48397627
H        0.90183025       3.01326852      -0.33280133
H        2.27312678       1.14714053      -0.86990971
H        2.46525348       1.32566350       0.86818937
H        2.22808494      -1.03551978       0.39215234
H        0.84044965      -0.46555823       1.33268736
H        1.23804552      -2.14585291      -3.21476243
H        1.76318906      -0.57664109      -3.83347589
H        2.49873425      -1.24873293      -2.36255873
O       -1.42903672      -0.80038384       0.78792003
O       -1.10789914      -0.55695669      -0.31428209
22
Properties=species:S:1:pos:R:3 energy=-2169.1312182323427 pbc="F F F"
O        0.77383580       2.06226372       2.52059434
C        0.14163980       2.38741975       1.54100050
C        0.57616225       2.06545000       0.13149916
C        1.72107969       1.04944922       0.10894205
C        1.31500947      -0.40841471       0.32059978
C        0.36083620      -0.99215900      -0.70087317
H        0.37745802      -2.10716357      -0.65293592
C        0.49604485      -0.45838136      -2.08476695
O       -0.20436832       0.42744862      -2.52065651
C        1.54791765      -1.14340810      -2.91423594
H       -0.80372422       2.94819590       1.61850818
H       -0.29364331       1.72144635      -0.47635323
H        0.91061063       3.00229692      -0.35803849
H        2.30304712       1.15550165      -0.79999187
H        2.40175075       1.31250860       0.93290663
H        2.23439071      -1.03492720       0.39377427
H        0.83152261      -0.49126429       1.32584674
H        1.21426954      -2.14137550      -3.22740007
H        1.76940921      -0.57834262      -3.83857511
H        2.49184560      -1.27696141      -2.37159856
O       -1.43394521      -0.88092104       0.75621363
O       -1.10852683      -0.58240591      -0.32733144
22
Properties=species:S:1:pos:R:3 energy=-2169.0712917940914 pbc="F F F"
O        0.78560184       2.11437607       2.51276921
C        0.15175563       2.43446931       1.53271625
C        0.56790577       2.07239299       0.12779608
C        1.70302745       1.04610765       0.13790355
C        1.31118597      -0.41662680       0.31934338
C        0.37162387      -0.99777893      -0.71528806
H        0.41480196      -2.11701832      -0.67253582
C        0.50250547      -0.45198859      -2.08228008
O       -0.18916297       0.44244603      -2.51627757
C        1.54297531      -1.14790914      -2.92174261
H       -0.78103994       3.01501931       1.60426232
H       -0.31099443       1.73191576      -0.46845938
H        0.91892516       2.99034258      -0.38269055
H        2.32943178       1.16363993      -0.72859786
H        2.33601783       1.29924342       0.99539807
H        2.24013075      -1.03332745       0.39666221
H        0.82249463      -0.51657033       1.31968401
H        1.19026982      -2.13648401      -3.24067141
H        1.77582611      -0.58093398      -3.84412195
H        2.48381291      -1.30520345      -2.38076579
O       -1.43654512      -0.96107273       0.72344674
O       -1.10792779      -0.60878332      -0.33942274
22
Properties=species:S:1:pos:R:3 energy=-2168.9949611047655 pbc="F F F"
O        0.79831246       2.16544005       2.50456589
C        0.16302394       2.48066120       1.52393097
C        0.55989152       2.07933761       0.12436656
C        1.68363933       1.04284595       0.16711653
C        1.30713059      -0.42435726       0.31897371
C        0.38260688      -1.00304106      -0.72874402
H        0.45264527      -2.12523425      -0.69190885
C        0.50912276      -0.44564747      -2.08049767
O       -0.17311483       0.45783977      -2.51226204
C        1.53768677      -1.15251409      -2.92980087
H       -0.75637842       3.08079657       1.58923872
H       -0.32806719       1.74326717      -0.46030423
H        0.92677186       2.97743788      -0.40674957
H        2.35231053       1.17155992      -0.65584909
H        2.26818177       1.28587807       1.05564298
H        2.24530251      -1.03073273       0.40079459
H        0.81336947      -0.54145945       1.31420507
H        1.16607412      -2.13119266      -3.25455793
H        1.78242544      -0.58440056      -3.85009769
H        2.47466206      -1.33342404      -2.39005071
O       -1.43687012      -1.04076104       0.68968235
O       -1.10610473      -0.63604356      -0.35056668
22
Properties=species:S:1:pos:R:3 energy=-2168.9058544069535 pbc="F F F"
O        0.81194025       2.21541215       2.49600187
C        0.17541242       2.52595480       1.51466961
C        0.55211545       2.08626910       0.12121035
C        1.66295445       1.03966611       0.19654335
C        1.30284078      -0.43160551       0.31948372
C        0.39377496      -1.00794931      -0.74123046
H        0.49091929      -2.13181528      -0.71103040
C        0.51589762      -0.43934870      -2.07944301
O       -0.15625152       0.47359325      -2.50860207
C        1.53206598      -1.15721390      -2.93839606
H       -0.72979690       3.14546708       1.57346554
H       -0.34484432       1.75547323      -0.45189731
H        0.93414874       2.96361521      -0.43020762
H        2.37171313       1.17926619      -0.58186694
H        2.19836958       1.27242265       1.11362065
H        2.24990344      -1.02715525       0.40614986
H        0.80415090      -0.56591479       1.30941579
H        1.14171021      -2.12551569      -3.26904109
H        1.78919286      -0.58872776      -3.85648361
H        2.46441892      -1.36158818      -2.39944362
O       -1.43495385      -1.11990810       0.65498340
O       -1.10306037      -0.66414130      -0.36077395
22
Properties=species:S:1:pos:R:3 energy=-2168.807216049866 pbc="F F F"
O        0.82645782       2.26424883       2.48709468
C        0.18888871       2.57030952       1.50495716
C        0.54457355       2.09317267       0.11832717
C        1.64101195       1.03657010       0.22614638
C        1.29831401      -0.43837097       0.32086633
C        0.40511782      -1.01250759      -0.75273677
H        0.52955532      -2.13676533      -0.72987585
C        0.52283093      -0.43308297      -2.07913935
O       -0.13860071       0.48966993      -2.50528982
C        1.52612687      -1.16199951      -2.94751351
H       -0.70135265       3.20897025       1.55697094
H       -0.36130858       1.76850658      -0.44324811
H        0.94105384       2.94890694      -0.45305676
H        2.38766934       1.18676330      -0.50677282
H        2.12670832       1.25888728       1.16931038
H        2.25393098      -1.02260720       0.41270643
H        0.79484267      -0.58991946       1.30532206
H        1.11720585      -2.11946732      -3.28410238
H        1.79611404      -0.59390098      -3.86326101
H        2.45310936      -1.38966086      -2.40893479
O       -1.43082999      -1.19843602       0.61941289
O       -1.09879744      -0.69303118      -0.37005523
22
Properties=species:S:1:pos:R:3 energy=-2168.7019826428605 pbc="F F F"
O        0.84183778       2.31190658       2.47786180
C        0.20342049       2.61368475       1.49481859
C        0.53726178       2.10003356       0.11571679
C        1.61785095       1.03355992       0.25588799
C        1.29354773      -0.44465304       0.32311450
C        0.41662519      -1.01671983      -0.76325236
H        0.56848470      -2.14008831      -0.74842058
C        0.52992361      -0.42684101      -2.07960999
O       -0.12019004       0.50603323      -2.50231744
C        1.51988337      -1.16686186      -2.95713856
H       -0.67110293       3.27124547       1.53978308
H       -0.37744272       1.78233986      -0.43436616
H        0.94748515       2.93334547      -0.47528905
H        2.40020891       1.19405582      -0.43068813
H        2.05332500       1.24528207       1.22269145
H        2.25738260      -1.01710079       0.42044273
H        0.78544855      -0.61345659       1.30192976
H        1.09258881      -2.11306178      -3.29972326
H        1.80317466      -0.59990561      -3.87041115
H        2.44075925      -1.41760709      -2.41851454
O       -1.42453219      -1.27626694       0.58303375
O       -1.09331864      -0.72266787      -0.37842123
22
Properties=species:S:1:pos:R:3 energy=-2168.5928578694734 pbc="F F F"
O        0.85805273       2.35834188       2.46832074
C        0.21897540       2.65603988       1.48427887
C        0.53017611       2.10683699       0.11337893
C        1.59351058       1.03063755       0.28573055
C        1.28853940      -0.45045114       0.32622116
C        0.42828679      -1.02058995      -0.77276663
H        0.60763873      -2.14178812      -0.76663998
C        0.53717654      -0.42061351      -2.08087819
O       -0.10104716       0.52264660      -2.49967707
C        1.51334943      -1.17179191      -2.96725656
H       -0.63910499       3.33223216       1.52193014
H       -0.39322947       1.79694570      -0.42526097
H        0.95344071       2.91696318      -0.49689655
H        2.40936163       1.20114830      -0.35373424
H        1.97834666       1.23161713       1.27374315
H        2.26025573      -1.01064822       0.42933721
H        0.77597230      -0.63650931       1.29924476
H        1.06788684      -2.10631331      -3.31588523
H        1.81036038      -0.60672704      -3.87791533
H        2.42739447      -1.44539186      -2.42817314
O       -1.41609410      -1.35332299       0.54590898
O       -1.08662670      -0.75300602      -0.38588262
22
Properties=species:S:1:pos:R:3 energy=-2168.4823859862895 pbc="F F F"
O        0.87507527       2.40351121       2.45848902
C        0.23552111       2.69733432       1.47336297
C        0.52331251       2.11356819       0.11131336
C        1.56802996       1.02780497       0.31563644
C        1.28328647      -0.45576467       0.33017925
C        0.44009234      -1.02412188      -0.78126899
H        0.64694875      -2.14186868      -0.78450942
C        0.54459063      -0.41439119      -2.08296722
O       -0.08119972       0.53947346      -2.49736088
C        1.50653899      -1.17678058      -2.97785284
H       -0.60541608       3.39186972       1.50344028
H       -0.40865159       1.81229676      -0.41594204
H        0.95891853       2.89979244      -0.51787133
H        2.41515723       1.20804531      -0.27603257
H        1.90190034       1.21790257       1.32244479
H        2.26254783      -1.00326168       0.43936828
H        0.76641767      -0.65906073       1.29727296
H        1.04312771      -2.09923614      -3.33256975
H        1.81765689      -0.61435067      -3.88575483
H        2.41304088      -1.47298017      -2.43790089
O       -1.40554938      -1.42952628       0.50810152
O       -1.07872434      -0.78400028      -0.39245010
22
Properties=species:S:1:pos:R:3 energy=-2168.3730124421027 pbc="F F F"
O        0.89287802       2.44737104       2.44838412
C        0.25302529       2.73752746       1.46209587
C        0.51666695       2.12021239       0.10951980
C        1.54144822       1.02506418       0.34556801
C        1.27778640      -0.46059306       0.33498172
C        0.45203156      -1.02731953      -0.78874883
H        0.68634608      -2.14033390      -0.80200429
C        0.55216678      -0.40816473      -2.08590037
O       -0.06067536       0.55647726      -2.49536101
C        1.49946597      -1.18181883      -2.98891274
H       -0.57009347       3.45009754       1.48434165
H       -0.42369181       1.82836567      -0.40641889
H        0.96391662       2.88186564      -0.53820544
H        2.41762550       1.21475141      -0.19770451
H        1.82411308       1.20414849       1.36877563
H        2.26425634      -0.99495339       0.45051439
H        0.75678843      -0.68109398       1.29602024
H        1.01833918      -2.09184448      -3.34975831
H        1.82504984      -0.62276190      -3.89391094
H        2.39772436      -1.50033702      -2.44768809
O       -1.39293170      -1.50479895       0.46967434
O       -1.06961428      -0.81560531      -0.39813435
22
Properties=species:S:1:pos:R:3 energy=-2168.2671084585977 pbc="F F F"
O        0.91143357       2.48987786       2.43802356
C        0.27145559       2.77657869       1.45050253
C        0.51023539       2.12675482       0.10799802
C        1.51380450       1.02241717       0.37548764
C        1.27203666      -0.46493572       0.34062150
C        0.46409418      -1.03018684      -0.79519555
H        0.72576203      -2.13718769      -0.81909997
C        0.55990588      -0.40192486      -2.08970091
O       -0.03950173       0.57362143      -2.49366962
C        1.49214432      -1.18689760      -3.00042161
H       -0.53319441       3.50685504       1.46466243
H       -0.43833288       1.84512508      -0.39670104
H        0.96843301       2.86321516      -0.55789097
H        2.41679618       1.22127116      -0.11887145
H        1.74511189       1.19036502       1.41271499
H        2.26537872      -0.98573554       0.46275396
H        0.74708834      -0.70259219       1.29549247
H        0.99354903      -2.08415258      -3.36743236
H        1.83252490      -0.63194611      -3.90236493
H        2.38147078      -1.52742740      -2.45752503
O       -1.37827471      -1.57906313       0.43069042
O       -1.05929923      -0.84777577      -0.40294607
22
Properties=species:S:1:pos:R:3 energy=-2168.1669332890992 pbc="F F F"
O        0.93071453       2.53098814       2.42742485
C        0.29077968       2.81444742       1.43860793
C        0.50401382       2.13318070       0.10674774
C        1.48513792       1.01986590       0.40535770
C        1.26603469      -0.46879206       0.34709153
C        0.47626991      -1.03272771      -0.80059857
H        0.76512792      -2.13243398      -0.83577184
C        0.56780883      -0.39566227      -2.09439210
O       -0.01770649       0.59086942      -2.49227886
C        1.48458797      -1.19200783      -3.01236477
H       -0.49477616       3.56208162       1.44443078
H       -0.45255756       1.86254761      -0.38679799
H        0.97246571       2.84387338      -0.57691996
H        2.41269904       1.22760913      -0.03965479
H        1.66502382       1.17656226       1.45424214
H        2.26591241      -0.97562033       0.47606541
H        0.73732116      -0.72353847       1.29569554
H        0.96878500      -2.07617466      -3.38557341
H        1.84006776      -0.64188872      -3.91109810
H        2.36430601      -1.55421632      -2.46740200
O       -1.36161206      -1.65224093       0.39121272
O       -1.04778191      -0.88046630      -0.40689595
22
Properties=species:S:1:pos:R:3 energy=-2168.0745184934053 pbc="F F F"
O        0.95069350       2.57065836       2.41660547
C        0.31096521       2.85109303       1.42643704
C        0.49799818       2.13947526       0.10576871
C        1.45548760       1.01741238       0.43514055
C        1.25977796      -0.47216149       0.35438477
C        0.48854848      -1.03494609      -0.80494728
H        0.80437508      -2.12607666      -0.85199529
C        0.57587653      -0.38936767      -2.09999723
O        0.00468273       0.60818464      -2.49118089
C        1.47681087      -1.19714047      -3.02472758
H       -0.45489597       3.61571669       1.42367486
H       -0.46634857       1.88060592      -0.37671926
H        0.97601274       2.82387270      -0.59528447
H        2.40536385       1.23376988       0.03982407
H        1.58397590       1.16275032       1.49333638
H        2.26585486      -0.96461997       0.49042719
H        0.72749065      -0.74391596       1.29663533
H        0.94407487      -2.06792496      -3.40416291
H        1.84766408      -0.65257510      -3.92009172
H        2.34625592      -1.58066877      -2.47730929
O       -1.34297743      -1.72425448       0.35130420
O       -1.03506504      -0.91363156      -0.40999467
22
Properties=species:S:1:pos:R:3 energy=-2167.9914811508506 pbc="F F F"
O        0.97134310       2.60884500       2.40558295
C        0.33197985       2.88647493       1.41401484
C        0.49218447       2.14562374       0.10506069
C        1.42489267       1.01505859       0.46479858
C        1.25326391      -0.47504342       0.36249414
C        0.50091961      -1.03684588      -0.80823109
H        0.84343483      -2.11811965      -0.86774570
C        0.58410989      -0.38303177      -2.10653957
O        0.02763827       0.62553055      -2.49036785
C        1.46882695      -1.20228646      -3.03749536
H       -0.41361111       3.66769963       1.40242284
H       -0.47968868       1.89927264      -0.36647435
H        0.97907212       2.80324548      -0.61297658
H        2.39482036       1.23975797       0.11944375
H        1.50209516       1.14893931       1.52997701
H        2.26520353      -0.95274665       0.50581772
H        0.71760057      -0.76370777       1.29831772
H        0.91944639      -2.05941770      -3.42318235
H        1.85529952      -0.66399066      -3.92932708
H        2.32734638      -1.60674975      -2.48723719
O       -1.32240446      -1.79502592       0.31102783
O       -1.02115134      -0.94722622      -0.41225292
22
Properties=species:S:1:pos:R:3 energy=-2167.9187994678337 pbc="F F F"
O        0.99263592       2.64550454       2.39437478
C        0.35379125       2.92055250       1.40136629
C        0.48656863       2.15161135       0.10462340
C        1.39339227       1.01280652       0.49429413
C        1.24649002      -0.47743728       0.37141258
C        0.51337303      -1.03843101      -0.81043939
H        0.88223849      -2.10856686      -0.88299845
C        0.59250979      -0.37664527      -2.11404240
O        0.05113249       0.64287057      -2.48983191
C        1.46065014      -1.20743675      -3.05065346
H       -0.37097883       3.71796987       1.38070288
H       -0.49256062       1.91852042      -0.35607280
H        0.98164186       2.78202412      -0.62998835
H        2.38109834       1.24557797       0.19908284
H        1.41950864       1.13513934       1.56414330
H        2.26395585      -0.94001257       0.52221543
H        0.70765468      -0.78289702       1.30074860
H        0.89492733      -2.05066711      -3.44261320
H        1.86295977      -0.67612079      -3.93878547
H        2.30760326      -1.63242426      -2.49717600
O       -1.29992681      -1.86447737       0.27044658
O       -1.00604352      -0.98120491      -0.41368139
22
Properties=species:S:1:pos:R:3 energy=-2167.8566034353166 pbc="F F F"
O        1.01454457       2.68059346       2.38299847
C        0.37636709       2.95328516       1.38851636
C        0.48114665       2.15742332       0.10445660
C        1.36102552       1.01065815       0.52358960
C        1.23945373      -0.47934246       0.38113305
C        0.52589844      -1.03970541      -0.81156159
H        0.92071738      -2.09742220      -0.89772891
C        0.60107714      -0.37019888      -2.12252898
O        0.07513773       0.66016815      -2.48956520
C        1.45229440      -1.21258227      -3.06418723
H       -0.32705638       3.76646680       1.35854314
H       -0.50494714       1.93832189      -0.34552409
H        0.98371999       2.76024099      -0.64631184
H        2.36422754       1.25123442       0.27861995
H        1.33634337       1.12136053       1.59581455
H        2.26210929      -0.92642995       0.53959876
H        0.69765674      -0.80146685       1.30393384
H        0.87054546      -2.04168742      -3.46243693
H        1.87063048      -0.68895089      -3.94844816
H        2.28705244      -1.65765729      -2.50711601
O       -1.27557815      -1.93253095       0.22962341
O       -0.98974432      -1.01552231      -0.41429078
22
Properties=species:S:1:pos:R:3 energy=-2167.804036492411 pbc="F F F"
O        1.03704165       2.71406824       2.37147152
C        0.39967501       2.98463229       1.37549004
C        0.47591450       2.16304489       0.10456004
C        1.32783155       1.00861546       0.55264733
C        1.23215251      -0.48075840       0.39164847
C        0.53848558      -1.04067299      -0.81158709
H        0.95880281      -2.08468960      -0.91191249
C        0.60981283      -0.36368330      -2.13202260
O        0.09962636       0.67738672      -2.48955989
C        1.44377364      -1.21771397      -3.07808198
H       -0.28190103       3.81312983       1.33597180
H       -0.51683098       1.95864970      -0.33483775
H        0.98530453       2.73792848      -0.66193910
H        2.34423774       1.25673191       0.35793368
H        1.25272638       1.10761298       1.62497006
H        2.25966129      -0.91201097       0.55794613
H        0.68761051      -0.81940038       1.30787934
H        0.84632854      -2.03249286      -3.48263504
H        1.87829734      -0.70246635      -3.95829645
H        2.26571979      -1.68241384      -2.51704752
O       -1.24939212      -1.99910878       0.18862128
O       -0.97225643      -1.05013305      -0.41409177
22
Properties=species:S:1:pos:R:3 energy=-2167.7592293547273 pbc="F F F"
O        1.06009978       2.74588535       2.35981144
C        0.42368269       3.01455328       1.36231229
C        0.47086813       2.16846128       0.10493344
C        1.29384948       1.00668045       0.58142971
C        1.22458381      -0.48168449       0.40295179
C        0.55112417      -1.04133769      -0.81050530
H        0.99642612      -2.07037295      -0.92552455
C        0.61871777      -0.35708924      -2.14254652
O        0.12457071       0.69448972      -2.48980813
C        1.43510181      -1.22282279      -3.09232308
H       -0.23557003       3.85789836       1.31301700
H       -0.52819489       1.97947649      -0.32402329
H        0.98639348       2.71511897      -0.67686222
H        2.32115869       1.26207499       0.43690264
H        1.16878471       1.09390681       1.65158911
H        2.25660929      -0.89676784       0.57723598
H        0.67751976      -0.83668072       1.31259096
H        0.82230433      -2.02309767      -3.50318898
H        1.88594601      -0.71665257      -3.96831161
H        2.24363118      -1.70665892      -2.52696081
O       -1.22140240      -2.06413301       0.14750317
O       -0.95358259      -1.08499180      -0.41309505
22
Properties=species:S:1:pos:R:3 energy=-2167.71939984555 pbc="F F F"
O        1.08369155       2.77600127       2.34803573
C        0.44835778       3.04300754       1.34900807
C        0.46600353       2.17365772       0.10557657
C        1.25911844       1.00485510       0.60989910
C        1.21674508      -0.48212015       0.41503596
C        0.56380392      -1.04170342      -0.80830561
H        1.03351862      -2.05447617      -0.93854048
C        0.62779285      -0.35040740      -2.15412403
O        0.14994315       0.71144057      -2.49030207
C        1.42629285      -1.22789969      -3.10689584
H       -0.18812064       3.90071179       1.28970693
H       -0.53902162       2.00077489      -0.31309023
H        0.98698487       2.69184485      -0.69107324
H        2.29502015       1.26726822       0.51540543
H        1.08464539       1.08025212       1.67565100
H        2.25295075      -0.88071277       0.59744673
H        0.66738824      -0.85329100       1.31807460
H        0.79850059      -2.01351607      -3.52408024
H        1.89356217      -0.73149494      -3.97847494
H        2.22081247      -1.73035751      -2.53684617
O       -1.19164263      -2.12752575       0.10633204
O       -0.93372551      -1.12005322      -0.41131131
22
Properties=species:S:1:pos:R:3 energy=-2167.681062603331 pbc="F F F"
O        1.10778957       2.80437249       2.33616189
C        0.47366794       3.06995447       1.33560238
C        0.46131665       2.17861944       0.10648916
C        1.22367757       1.00314139       0.63801787
C        1.20863379      -0.48206479       0.42789390
C        0.57651457      -1.04177410      -0.80497743
H        1.07001164      -2.03700318      -0.95093566
C        0.63703897      -0.34362849      -2.16677839
O        0.17571603       0.72820273      -2.49103387
C        1.41736070      -1.23293559      -3.12178563
H       -0.13961012       3.94150953       1.26606974
H       -0.54929391       2.02251755      -0.30204806
H        0.98707672       2.66813849      -0.70456423
H        2.26585188       1.27231616       0.59332066
H        1.00043545       1.06665902       1.69713501
H        2.24868312      -0.86385794       0.61855681
H        0.65721971      -0.86921435       1.32433614
H        0.77494509      -2.00376229      -3.54529030
H        1.90113147      -0.74697886      -3.98876770
H        2.19728955      -1.75347462      -2.54669391
O       -1.16014647      -2.18920913       0.06517086
O       -0.91268791      -1.15527195      -0.40875124
22
Properties=species:S:1:pos:R:3 energy=-2167.6403104183173 pbc="F F F"
O        1.13236644       2.83095548       2.32420743
C        0.49958084       3.09535345       1.32212017
C        0.45680347       2.18333165       0.10767096
C        1.18756598       1.00154132       0.66574839
C        1.20024740      -0.48151783       0.44151856
C        0.58924582      -1.04155366      -0.80051016
H        1.10583649      -2.01795788      -0.96268547
C        0.64645703      -0.33674321      -2.18053288
O        0.20186169       0.74473962      -2.49199567
C        1.40831928      -1.23792146      -3.13697777
H       -0.09009571       3.98023099       1.24213360
H       -0.55899451       2.04467711      -0.29090632
H        0.98666704       2.64403228      -0.71732725
H        2.23368366       1.27722339       0.67052693
H        0.91628193       1.05313764       1.71602043
H        2.24380385      -0.84621557       0.64054467
H        0.64701794      -0.88443389       1.33138145
H        0.75166559      -1.99385056      -3.56680063
H        1.90863960      -0.76308971      -3.99917120
H        2.17308828      -1.77597524      -2.55649431
O       -1.12694759      -2.24910527       0.02408259
O       -0.89047251      -1.19060266      -0.40542553
22
Properties=species:S:1:pos:R:3 energy=-2167.5931204402195 pbc="F F F"
O        1.15739477       2.85570672       2.31218986
C        0.52606413       3.11916389       1.30858642
C        0.45245997       2.18777961       0.10912171
C        1.15082281       1.00005687       0.69305303
C        1.19158335      -0.48047868       0.45590289
C        0.60198741      -1.04104602      -0.79489321
H        1.14092449      -1.99734419      -0.97376530
C        0.65604793      -0.32974227      -2.19541078
O        0.22835249       0.76101469      -2.49317963
C        1.39918255      -1.24284822      -3.15245760
H       -0.03963469       4.01681556       1.21792667
H       -0.56810615       2.06722621      -0.27967450
H        0.98575385       2.61955860      -0.72935438
H        2.19854523       1.28199445       0.74690284
H        0.83231186       1.03969807       1.73228656
H        2.23831038      -0.82779785       0.66338872
H        0.63678668      -0.89893274       1.33921642
H        0.72868985      -1.98379511      -3.58859270
H        1.91607223      -0.77981291      -4.00966671
H        2.14823453      -1.79782438      -2.56623766
O       -1.09207964      -2.30713631      -0.01686980
O       -0.86708203      -1.22599999      -0.40134486
22
Properties=species:S:1:pos:R:3 energy=-2167.535643623006 pbc="F F F"
O        1.18284717       2.87858269       2.30012667
C        0.55308548       3.14134517       1.29502611
C        0.44828209       2.19194852       0.11084115
C        1.11348718       0.99869002       0.71989415
C        1.18263911      -0.47894676       0.47103982
C        0.61472906      -1.04025510      -0.78811597
H        1.17520697      -1.97516601      -0.98415053
C        0.66581256      -0.32261638      -2.21143535
O        0.25516078       0.77699136      -2.49457790
C        1.38996444      -1.24770682      -3.16821046
H        0.01171570       4.05120265       1.19347711
H       -0.57661159       2.09013749      -0.26836212
H        0.98433518       2.59474984      -0.74063766
H        2.16046636       1.28663392       0.82232701
H        0.74865227       1.02635042       1.74591269
H        2.23220016      -0.80861699       0.68706740
H        0.62652969      -0.91269403       1.34784694