22
Properties=species:S:1:pos:R:3 energy=-2164.0607922819167 pbc="F F F"
O        2.03332642       2.56838782       1.97139660
C        1.47350192       2.93601006       0.96164215
C        0.36491042       2.15840529       0.29017693
C       -0.12784228       1.00478551       1.17597876
C        0.77019211      -0.22679810       1.24460144
C        0.98301622      -0.88859677      -0.04542427
H        1.54692621      -0.61771739      -0.86139624
C        1.04925371       0.02497240      -3.30413447
O        1.10960381       0.92962412      -2.60644456
C        1.13201950      -1.33309237      -3.70665435
H        1.74787483       3.87656979       0.46418183
H       -0.48453100       2.83528798       0.08312247
H        0.70052564       1.82153139      -0.72728987
H       -0.17482390       1.38943687       2.19196836
H       -1.13528661       0.68816475       0.91655053
H        1.74751706       0.06918844       1.69908157
H        0.31058285      -0.93988594       1.98581168
H        0.27293196      -1.65843175      -4.32832353
H        2.04113160      -1.53465297      -4.29065689
H        1.17110186      -2.00185131      -2.81504236
O        0.64100839      -2.91298506      -0.94270280
O        0.44968129      -2.15209678       0.02068503
