22
Properties=species:S:1:pos:R:3 energy=-13592.022365919534 pbc="F F F"
C        4.48455900      -0.63865600       1.75674300
C        3.26891600      -0.58253200       0.82707500
C        2.82336400      -1.99955300       0.46747200
C        2.50871200      -2.86968300       1.68803700
C        3.36069900      -2.60053600       2.97682800
C        4.10613000      -1.27459400       3.09496000
H        5.29857300      -1.22284700       1.28092700
H        4.89285900       0.37568600       1.92279900
H        2.44105900      -0.02634900       1.30652000
H        3.51759300      -0.02311700      -0.09517700
H        1.95323100      -1.96652600      -0.21500700
H        3.62924000      -2.50736700      -0.11019900
C        1.02375100      -3.00081600       1.97868100
H        2.75505600      -2.77800200       3.89587200
H        5.02488800      -1.44673300       3.69642800
H        3.48703200      -0.56590300       3.68107700
H        0.47599700      -3.37194000       1.10137100
H        0.58576700      -2.03693700       2.26182900
H        0.83008700      -3.71980600       2.78709600
O        4.30597300      -3.72051900       3.01913300
O        4.29188100      -4.24945400       1.69846100
O        2.93572100      -4.25805400       1.36746400
